  -2.00062490       0.00000000    
  -1.99562490       0.00000000    
  -1.99062490       0.00000000    
  -1.98562491       0.00000000    
  -1.98062491       0.00000000    
  -1.97562492       0.00000000    
  -1.97062492       0.00000000    
  -1.96562493       0.00000000    
  -1.96062493       0.00000000    
  -1.95562494       0.00000000    
  -1.95062494       0.00000000    
  -1.94562495       0.00000000    
  -1.94062495       0.00000000    
  -1.93562496       0.00000000    
  -1.93062496       0.00000000    
  -1.92562485       0.00000000    
  -1.92062485       0.00000000    
  -1.91562486       0.00000000    
  -1.91062486       0.00000000    
  -1.90562487       0.00000000    
  -1.90062487       0.00000000    
  -1.89562488       0.00000000    
  -1.89062488       0.00000000    
  -1.88562489       0.00000000    
  -1.88062489       0.00000000    
  -1.87562490       0.00000000    
  -1.87062490       0.00000000    
  -1.86562490       0.00000000    
  -1.86062491       0.00000000    
  -1.85562491       0.00000000    
  -1.85062492       0.00000000    
  -1.84562492       0.00000000    
  -1.84062493       0.00000000    
  -1.83562493       0.00000000    
  -1.83062494       0.00000000    
  -1.82562494       0.00000000    
  -1.82062495       0.00000000    
  -1.81562495       0.00000000    
  -1.81062496       0.00000000    
  -1.80562496       0.00000000    
  -1.80062485       0.00000000    
  -1.79562485       0.00000000    
  -1.79062486       0.00000000    
  -1.78562486       0.00000000    
  -1.78062487       0.00000000    
  -1.77562487       0.00000000    
  -1.77062488       0.00000000    
  -1.76562488       0.00000000    
  -1.76062489       0.00000000    
  -1.75562489       0.00000000    
  -1.75062490       0.00000000    
  -1.74562490       0.00000000    
  -1.74062490       0.00000000    
  -1.73562491       0.00000000    
  -1.73062491       0.00000000    
  -1.72562492       0.00000000    
  -1.72062492       0.00000000    
  -1.71562493       0.00000000    
  -1.71062493       0.00000000    
  -1.70562494       0.00000000    
  -1.70062494       0.00000000    
  -1.69562495       0.00000000    
  -1.69062495       0.00000000    
  -1.68562496       0.00000000    
  -1.68062496       0.00000000    
  -1.67562485       0.00000000    
  -1.67062485       0.00000000    
  -1.66562486       0.00000000    
  -1.66062486       0.00000000    
  -1.65562487       0.00000000    
  -1.65062487       0.00000000    
  -1.64562488       0.00000000    
  -1.64062488       0.00000000    
  -1.63562489       0.00000000    
  -1.63062489       0.00000000    
  -1.62562490       0.00000000    
  -1.62062490       0.00000000    
  -1.61562490       0.00000000    
  -1.61062491       0.00000000    
  -1.60562491       0.00000000    
  -1.60062492       0.00000000    
  -1.59562492       0.00000000    
  -1.59062493       0.00000000    
  -1.58562493       0.00000000    
  -1.58062494       0.00000000    
  -1.57562494       0.00000000    
  -1.57062495       0.00000000    
  -1.56562495       0.00000000    
  -1.56062496       0.00000000    
  -1.55562496       0.00000000    
  -1.55062485       0.00000000    
  -1.54562485       0.00000000    
  -1.54062486       0.00000000    
  -1.53562486       0.00000000    
  -1.53062487       0.00000000    
  -1.52562487       0.00000000    
  -1.52062488       0.00000000    
  -1.51562488       0.00000000    
  -1.51062489       0.00000000    
  -1.50562489       0.00000000    
  -1.50062490       0.00000000    
  -1.49562490       0.00000000    
  -1.49062490       0.00000000    
  -1.48562491       0.00000000    
  -1.48062491       0.00000000    
  -1.47562492       0.00000000    
  -1.47062492       0.00000000    
  -1.46562493       0.00000000    
  -1.46062493       0.00000000    
  -1.45562494       0.00000000    
  -1.45062494       0.00000000    
  -1.44562495       0.00000000    
  -1.44062495       0.00000000    
  -1.43562496       0.00000000    
  -1.43062496       0.00000000    
  -1.42562485       0.00000000    
  -1.42062485       0.00000000    
  -1.41562486       0.00000000    
  -1.41062486       0.00000000    
  -1.40562487       0.00000000    
  -1.40062487       0.00000000    
  -1.39562488       0.00000000    
  -1.39062488       0.00000000    
  -1.38562489       0.00000000    
  -1.38062489       0.00000000    
  -1.37562490       0.00000000    
  -1.37062490       0.00000000    
  -1.36562490       0.00000000    
  -1.36062491       0.00000000    
  -1.35562491       0.00000000    
  -1.35062492       0.00000000    
  -1.34562492       0.00000000    
  -1.34062493       0.00000000    
  -1.33562493       0.00000000    
  -1.33062494       0.00000000    
  -1.32562494       0.00000000    
  -1.32062495       0.00000000    
  -1.31562495       0.00000000    
  -1.31062496       0.00000000    
  -1.30562496       0.00000000    
  -1.30062485       0.00000000    
  -1.29562485       0.00000000    
  -1.29062486       0.00000000    
  -1.28562486       0.00000000    
  -1.28062487       0.00000000    
  -1.27562487       0.00000000    
  -1.27062488       0.00000000    
  -1.26562488       0.00000000    
  -1.26062489       0.00000000    
  -1.25562489       0.00000000    
  -1.25062490       0.00000000    
  -1.24562490       0.00000000    
  -1.24062490       0.00000000    
  -1.23562491       0.00000000    
  -1.23062491       0.00000000    
  -1.22562492       0.00000000    
  -1.22062492       0.00000000    
  -1.21562493       0.00000000    
  -1.21062493       0.00000000    
  -1.20562494       0.00000000    
  -1.20062494       0.00000000    
  -1.19562495       0.00000000    
  -1.19062495       0.00000000    
  -1.18562496       0.00000000    
  -1.18062496       0.00000000    
  -1.17562485       0.00000000    
  -1.17062485       0.00000000    
  -1.16562486       0.00000000    
  -1.16062486       0.00000000    
  -1.15562487       0.00000000    
  -1.15062487       0.00000000    
  -1.14562488       0.00000000    
  -1.14062488       0.00000000    
  -1.13562489       0.00000000    
  -1.13062489       0.00000000    
  -1.12562490       0.00000000    
  -1.12062490       0.00000000    
  -1.11562490       0.00000000    
  -1.11062491       0.00000000    
  -1.10562491       0.00000000    
  -1.10062492       0.00000000    
  -1.09562492       0.00000000    
  -1.09062493       0.00000000    
  -1.08562493       0.00000000    
  -1.08062494       0.00000000    
  -1.07562494       0.00000000    
  -1.07062495       0.00000000    
  -1.06562495       0.00000000    
  -1.06062496       0.00000000    
  -1.05562496       0.00000000    
  -1.05062485       0.00000000    
  -1.04562485       0.00000000    
  -1.04062486       0.00000000    
  -1.03562486       0.00000000    
  -1.03062487       0.00000000    
  -1.02562487       0.00000000    
  -1.02062488       0.00000000    
  -1.01562488       0.00000000    
  -1.01062489       0.00000000    
  -1.00562489       0.00000000    
  -1.00062490       0.00000000    
 -0.995624900       0.00000000    
 -0.990624905       0.00000000    
 -0.985624909       0.00000000    
 -0.980624914       0.00000000    
 -0.975624919       0.00000000    
 -0.970624924       0.00000000    
 -0.965624928       0.00000000    
 -0.960624874       0.00000000    
 -0.955624878       0.00000000    
 -0.950624883       0.00000000    
 -0.945624888       0.00000000    
 -0.940624893       0.00000000    
 -0.935624897       0.00000000    
 -0.930624902       0.00000000    
 -0.925624907       0.00000000    
 -0.920624912       0.00000000    
 -0.915624917       0.00000000    
 -0.910624921       0.00000000    
 -0.905624926       0.00000000    
 -0.900624931       0.00000000    
 -0.895624876       0.00000000    
 -0.890624881       0.00000000    
 -0.885624886       0.00000000    
 -0.880624890       0.00000000    
 -0.875624895       0.00000000    
 -0.870624900       0.00000000    
 -0.865624905       0.00000000    
 -0.860624909       0.00000000    
 -0.855624914       0.00000000    
 -0.850624919       0.00000000    
 -0.845624924       0.00000000    
 -0.840624928       0.00000000    
 -0.835624874       0.00000000    
 -0.830624878       0.00000000    
 -0.825624883       0.00000000    
 -0.820624888       0.00000000    
 -0.815624893       0.00000000    
 -0.810624897       0.00000000    
 -0.805624902       0.00000000    
 -0.800624907       0.00000000    
 -0.795624912       0.00000000    
 -0.790624917       0.00000000    
 -0.785624921       0.00000000    
 -0.780624926       0.00000000    
 -0.775624931       0.00000000    
 -0.770624876       0.00000000    
 -0.765624881       0.00000000    
 -0.760624886       0.00000000    
 -0.755624890       0.00000000    
 -0.750624895       0.00000000    
 -0.745624900       0.00000000    
 -0.740624905       0.00000000    
 -0.735624909       0.00000000    
 -0.730624914       0.00000000    
 -0.725624919       0.00000000    
 -0.720624924       0.00000000    
 -0.715624928       0.00000000    
 -0.710624874       0.00000000    
 -0.705624878       0.00000000    
 -0.700624883       0.00000000    
 -0.695624888       0.00000000    
 -0.690624893       0.00000000    
 -0.685624897       0.00000000    
 -0.680624902       0.00000000    
 -0.675624907       0.00000000    
 -0.670624912       0.00000000    
 -0.665624917       0.00000000    
 -0.660624921       0.00000000    
 -0.655624926       0.00000000    
 -0.650624931       0.00000000    
 -0.645624876       0.00000000    
 -0.640624881       0.00000000    
 -0.635624886       0.00000000    
 -0.630624890       0.00000000    
 -0.625624895       0.00000000    
 -0.620624900       0.00000000    
 -0.615624905       0.00000000    
 -0.610624909       0.00000000    
 -0.605624914       0.00000000    
 -0.600624919       0.00000000    
 -0.595624924       0.00000000    
 -0.590624928       0.00000000    
 -0.585624874       0.00000000    
 -0.580624878       0.00000000    
 -0.575624883       0.00000000    
 -0.570624888       0.00000000    
 -0.565624893       0.00000000    
 -0.560624897       0.00000000    
 -0.555624902       0.00000000    
 -0.550624907       0.00000000    
 -0.545624912       0.00000000    
 -0.540624917       0.00000000    
 -0.535624921       0.00000000    
 -0.530624926       0.00000000    
 -0.525624931       0.00000000    
 -0.520624876       0.00000000    
 -0.515624881       0.00000000    
 -0.510624886       0.00000000    
 -0.505624890       0.00000000    
 -0.500624895       0.00000000    
 -0.495624900       0.00000000    
 -0.490624905       0.00000000    
 -0.485624909       0.00000000    
 -0.480624914       0.00000000    
 -0.475624889       0.00000000    
 -0.470624894       0.00000000    
 -0.465624899       0.00000000    
 -0.460624903       0.00000000    
 -0.455624908       0.00000000    
 -0.450624913       0.00000000    
 -0.445624888       0.00000000    
 -0.440624893       0.00000000    
 -0.435624897       0.00000000    
 -0.430624902       0.00000000    
 -0.425624907       0.00000000    
 -0.420624912       0.00000000    
 -0.415624917       0.00000000    
 -0.410624892       0.00000000    
 -0.405624896       0.00000000    
 -0.400624901       0.00000000    
 -0.395624906       0.00000000    
 -0.390624911       0.00000000    
 -0.385624915       0.00000000    
 -0.380624890       0.00000000    
 -0.375624895       0.00000000    
 -0.370624900       0.00000000    
 -0.365624905       0.00000000    
 -0.360624909       0.00000000    
 -0.355624914       0.00000000    
 -0.350624889       0.00000000    
 -0.345624894       0.00000000    
 -0.340624899       0.00000000    
 -0.335624903       0.00000000    
 -0.330624908       0.00000000    
 -0.325624913       0.00000000    
 -0.320624888       0.00000000    
 -0.315624893       0.00000000    
 -0.310624897       0.00000000    
 -0.305624902       0.00000000    
 -0.300624907       0.00000000    
 -0.295624912       0.00000000    
 -0.290624917       0.00000000    
 -0.285624892       0.00000000    
 -0.280624896       0.00000000    
 -0.275624901       0.00000000    
 -0.270624906       0.00000000    
 -0.265624911       0.00000000    
 -0.260624915       0.00000000    
 -0.255624890       0.00000000    
 -0.250624895       0.00000000    
 -0.245624900       0.00000000    
 -0.240624905       0.00000000    
 -0.235624909       0.00000000    
 -0.230624899       0.00000000    
 -0.225624904       0.00000000    
 -0.220624909       0.00000000    
 -0.215624899       0.00000000    
 -0.210624903       0.00000000    
 -0.205624908       0.00000000    
 -0.200624898       0.00000000    
 -0.195624903       0.00000000    
 -0.190624908       0.00000000    
 -0.185624897       0.00000000    
 -0.180624902       0.00000000    
 -0.175624907       0.00000000    
 -0.170624897       0.00000000    
 -0.165624902       0.00000000    
 -0.160624906       0.00000000    
 -0.155624896       0.00000000    
 -0.150624901       0.00000000    
 -0.145624906       0.00000000    
 -0.140624896       0.00000000    
 -0.135624900       0.00000000    
 -0.130624905       0.00000000    
 -0.125624895       0.00000000    
 -0.120624900       0.00000000    
 -0.115624905       0.00000000    
 -0.110624902       0.00000000    
 -0.105624899       0.00000000    
 -0.100624904       0.00000000    
  -9.56249014E-02   0.00000000    
  -9.06248987E-02   0.00000000    
  -8.56249034E-02   0.00000000    
  -8.06249008E-02   0.00000000    
  -7.56249055E-02   0.00000000    
  -7.06249028E-02   0.00000000    
  -6.56249002E-02   0.00000000    
  -6.06249012E-02   0.00000000    
  -5.56249022E-02   0.00000000    
  -5.06249033E-02   0.00000000    
  -4.56249006E-02   0.00000000    
  -4.06249017E-02   0.00000000    
  -3.56249027E-02   0.00000000    
  -3.06249019E-02   0.00000000    
  -2.56249029E-02   0.00000000    
  -2.06249021E-02   0.00000000    
  -1.56249022E-02   0.00000000    
  -1.06249023E-02   0.00000000    
  -5.62490243E-03   0.00000000    
  -6.24902372E-04   0.00000000    
   4.37509781E-03   0.00000000    
   9.37509723E-03   0.00000000    
   1.43750980E-02   0.00000000    
   1.93750970E-02   0.00000000    
   2.43750978E-02   0.00000000    
   2.93750968E-02   0.00000000    
   3.43750976E-02   0.00000000    
   3.93750966E-02   0.00000000    
   4.43750992E-02   0.00000000    
   4.93750982E-02   0.00000000    
   5.43750972E-02   0.00000000    
   5.93750961E-02   0.00000000    
   6.43750951E-02   0.00000000    
   6.93750978E-02   0.00000000    
   7.43751004E-02   0.00000000    
   7.93750957E-02   0.00000000    
   8.43750983E-02   0.00000000    
   8.93751010E-02   0.00000000    
   9.43750963E-02   0.00000000    
   9.93750989E-02   0.00000000    
  0.104375094       0.00000000    
  0.109375097       0.00000000    
  0.114375100       0.00000000    
  0.119375095       0.00000000    
  0.124375097       0.00000000    
  0.129375100       0.00000000    
  0.134375095       0.00000000    
  0.139375091       0.00000000    
  0.144375101       0.00000000    
  0.149375096       0.00000000    
  0.154375091       0.00000000    
  0.159375101       0.00000000    
  0.164375097       0.00000000    
  0.169375092       0.00000000    
  0.174375102       0.00000000    
  0.179375097       0.00000000    
  0.184375092       0.00000000    
  0.189375103       0.00000000    
  0.194375098       0.00000000    
  0.199375093       0.00000000    
  0.204375103       0.00000000    
  0.209375098       0.00000000    
  0.214375094       0.00000000    
  0.219375104       0.00000000    
  0.224375099       0.00000000    
  0.229375094       0.00000000    
  0.234375104       0.00000000    
  0.239375100       0.00000000    
  0.244375095       0.00000000    
  0.249375105       0.00000000    
  0.254375100       0.00000000    
  0.259375095       0.00000000    
  0.264375091       0.00000000    
  0.269375086       0.00000000    
  0.274375111       0.00000000    
  0.279375106       0.00000000    
  0.284375101       0.00000000    
  0.289375097       0.00000000    
  0.294375092       0.00000000    
  0.299375087       0.00000000    
  0.304375112       0.00000000    
  0.309375107       0.00000000    
  0.314375103       0.00000000    
  0.319375098       0.00000000    
  0.324375093       0.00000000    
  0.329375088       0.00000000    
  0.334375083       0.00000000    
  0.339375108       0.00000000    
  0.344375104       0.00000000    
  0.349375099       0.00000000    
  0.354375094       0.00000000    
  0.359375089       0.00000000    
  0.364375085       0.00000000    
  0.369375110       0.00000000    
  0.374375105       0.00000000    
  0.379375100       0.00000000    
  0.384375095       0.00000000    
  0.389375091       0.00000000    
  0.394375086       0.00000000    
  0.399375111       0.00000000    
  0.404375106       0.00000000    
  0.409375101       0.00000000    
  0.414375097       0.00000000    
  0.419375092       0.00000000    
  0.424375087       0.00000000    
  0.429375112       0.00000000    
  0.434375107       0.00000000    
  0.439375103       0.00000000    
  0.444375098       0.00000000    
  0.449375093       0.00000000    
  0.454375088       0.00000000    
  0.459375083       0.00000000    
  0.464375108       0.00000000    
  0.469375104       0.00000000    
  0.474375099       0.00000000    
  0.479375094       0.00000000    
  0.484375089       0.00000000    
  0.489375085       0.00000000    
  0.494375110       0.00000000    
  0.499375105       0.00000000    
  0.504375100       0.00000000    
  0.509375095       0.00000000    
  0.514375091       0.00000000    
  0.519375086       0.00000000    
  0.524375081       0.00000000    
  0.529375076       0.00000000    
  0.534375072       0.00000000    
  0.539375126       0.00000000    
  0.544375122       0.00000000    
  0.549375117       0.00000000    
  0.554375112       0.00000000    
  0.559375107       0.00000000    
  0.564375103       0.00000000    
  0.569375098       0.00000000    
  0.574375093       0.00000000    
  0.579375088       0.00000000    
  0.584375083       0.00000000    
  0.589375079       0.00000000    
  0.594375074       0.00000000    
  0.599375069       0.00000000    
  0.604375124       0.00000000    
  0.609375119       0.00000000    
  0.614375114       0.00000000    
  0.619375110       0.00000000    
  0.624375105       0.00000000    
  0.629375100       0.00000000    
  0.634375095       0.00000000    
  0.639375091       0.00000000    
  0.644375086       0.00000000    
  0.649375081       0.00000000    
  0.654375076       0.00000000    
  0.659375072       0.00000000    
  0.664375126       0.00000000    
  0.669375122       0.00000000    
  0.674375117       0.00000000    
  0.679375112       0.00000000    
  0.684375107       0.00000000    
  0.689375103       0.00000000    
  0.694375098       0.00000000    
  0.699375093       0.00000000    
  0.704375088       0.00000000    
  0.709375083       0.00000000    
  0.714375079       0.00000000    
  0.719375074       0.00000000    
  0.724375069       0.00000000    
  0.729375124       0.00000000    
  0.734375119       0.00000000    
  0.739375114       0.00000000    
  0.744375110       0.00000000    
  0.749375105       0.00000000    
  0.754375100       0.00000000    
  0.759375095       0.00000000    
  0.764375091       0.00000000    
  0.769375086       0.00000000    
  0.774375081       0.00000000    
  0.779375076       0.00000000    
  0.784375072       0.00000000    
  0.789375126       0.00000000    
  0.794375122       0.00000000    
  0.799375117       0.00000000    
  0.804375112       0.00000000    
  0.809375107       0.00000000    
  0.814375103       0.00000000    
  0.819375098       0.00000000    
  0.824375093       0.00000000    
  0.829375088       0.00000000    
  0.834375083       0.00000000    
  0.839375079       0.00000000    
  0.844375074       0.00000000    
  0.849375069       0.00000000    
  0.854375124       0.00000000    
  0.859375119       0.00000000    
  0.864375114       0.00000000    
  0.869375110       0.00000000    
  0.874375105       0.00000000    
  0.879375100       0.00000000    
  0.884375095       0.00000000    
  0.889375091       0.00000000    
  0.894375086       0.00000000    
  0.899375081       0.00000000    
  0.904375076       0.00000000    
  0.909375072       0.00000000    
  0.914375126       0.00000000    
  0.919375122       0.00000000    
  0.924375117       0.00000000    
  0.929375112       0.00000000    
  0.934375107       0.00000000    
  0.939375103       0.00000000    
  0.944375098       0.00000000    
  0.949375093       0.00000000    
  0.954375088       0.00000000    
  0.959375083       0.00000000    
  0.964375079       0.00000000    
  0.969375074       0.00000000    
  0.974375069       0.00000000    
  0.979375124       0.00000000    
  0.984375119       0.00000000    
  0.989375114       0.00000000    
  0.994375110       0.00000000    
  0.999375105       0.00000000    
   1.00437510       0.00000000    
   1.00937510       0.00000000    
   1.01437509       0.00000000    
   1.01937509       0.00000000    
   1.02437508       0.00000000    
   1.02937508       0.00000000    
   1.03437507       0.00000000    
   1.03937507       0.00000000    
   1.04437506       0.00000000    
   1.04937506       0.00000000    
   1.05437505       0.00000000    
   1.05937505       0.00000000    
   1.06437504       0.00000000    
   1.06937504       0.00000000    
   1.07437515       0.00000000    
   1.07937515       0.00000000    
   1.08437514       0.00000000    
   1.08937514       0.00000000    
   1.09437513       0.00000000    
   1.09937513       0.00000000    
   1.10437512       0.00000000    
   1.10937512       0.00000000    
   1.11437511       0.00000000    
   1.11937511       0.00000000    
   1.12437510       0.00000000    
   1.12937510       0.00000000    
   1.13437510       0.00000000    
   1.13937509       0.00000000    
   1.14437509       0.00000000    
   1.14937508       0.00000000    
   1.15437508       0.00000000    
   1.15937507       0.00000000    
   1.16437507       0.00000000    
   1.16937506       0.00000000    
   1.17437506       0.00000000    
   1.17937505       0.00000000    
   1.18437505       0.00000000    
   1.18937504       0.00000000    
   1.19437504       0.00000000    
   1.19937515       0.00000000    
   1.20437515       0.00000000    
   1.20937514       0.00000000    
   1.21437514       0.00000000    
   1.21937513       0.00000000    
   1.22437513       0.00000000    
   1.22937512       0.00000000    
   1.23437512       0.00000000    
   1.23937511       0.00000000    
   1.24437511       0.00000000    
   1.24937510       0.00000000    
   1.25437510       0.00000000    
   1.25937510       0.00000000    
   1.26437509       0.00000000    
   1.26937509       0.00000000    
   1.27437508       0.00000000    
   1.27937508       0.00000000    
   1.28437507       0.00000000    
   1.28937507       0.00000000    
   1.29437506       0.00000000    
   1.29937506       0.00000000    
   1.30437505       0.00000000    
   1.30937505       0.00000000    
   1.31437504       0.00000000    
   1.31937504       0.00000000    
   1.32437515       0.00000000    
   1.32937515       0.00000000    
   1.33437514       0.00000000    
   1.33937514       0.00000000    
   1.34437513       0.00000000    
   1.34937513       0.00000000    
   1.35437512       0.00000000    
   1.35937512       0.00000000    
   1.36437511       0.00000000    
   1.36937511       0.00000000    
   1.37437510       0.00000000    
   1.37937510       0.00000000    
   1.38437510       0.00000000    
   1.38937509       0.00000000    
   1.39437509       0.00000000    
   1.39937508       0.00000000    
   1.40437508       0.00000000    
   1.40937507       0.00000000    
   1.41437507       0.00000000    
   1.41937506       0.00000000    
   1.42437506       0.00000000    
   1.42937505       0.00000000    
   1.43437505       0.00000000    
   1.43937504       0.00000000    
   1.44437504       0.00000000    
   1.44937515       0.00000000    
   1.45437515       0.00000000    
   1.45937514       0.00000000    
   1.46437514       0.00000000    
   1.46937513       0.00000000    
   1.47437513       0.00000000    
   1.47937512       0.00000000    
   1.48437512       0.00000000    
   1.48937511       0.00000000    
   1.49437511       0.00000000    
   1.49937510       0.00000000    
   1.50437510       0.00000000    
   1.50937510       0.00000000    
   1.51437509       0.00000000    
   1.51937509       0.00000000    
   1.52437508       0.00000000    
   1.52937508       0.00000000    
   1.53437507       0.00000000    
   1.53937507       0.00000000    
   1.54437506       0.00000000    
   1.54937506       0.00000000    
   1.55437505       0.00000000    
   1.55937505       0.00000000    
   1.56437504       0.00000000    
   1.56937504       0.00000000    
   1.57437515       0.00000000    
   1.57937515       0.00000000    
   1.58437514       0.00000000    
   1.58937514       0.00000000    
   1.59437513       0.00000000    
   1.59937513       0.00000000    
   1.60437512       0.00000000    
   1.60937512       0.00000000    
   1.61437511       0.00000000    
   1.61937511       0.00000000    
   1.62437510       0.00000000    
   1.62937510       0.00000000    
   1.63437510       0.00000000    
   1.63937509       0.00000000    
   1.64437509       0.00000000    
   1.64937508       0.00000000    
   1.65437508       0.00000000    
   1.65937507       0.00000000    
   1.66437507       0.00000000    
   1.66937506       0.00000000    
   1.67437506       0.00000000    
   1.67937505       0.00000000    
   1.68437505       0.00000000    
   1.68937504       0.00000000    
   1.69437504       0.00000000    
   1.69937515       0.00000000    
   1.70437515       0.00000000    
   1.70937514       0.00000000    
   1.71437514       0.00000000    
   1.71937513       0.00000000    
   1.72437513       0.00000000    
   1.72937512       0.00000000    
   1.73437512       0.00000000    
   1.73937511       0.00000000    
   1.74437511       0.00000000    
   1.74937510       0.00000000    
   1.75437510       0.00000000    
   1.75937510       0.00000000    
   1.76437509       0.00000000    
   1.76937509       0.00000000    
   1.77437508       0.00000000    
   1.77937508       0.00000000    
   1.78437507       0.00000000    
   1.78937507       0.00000000    
   1.79437506       0.00000000    
   1.79937506       0.00000000    
   1.80437505       0.00000000    
   1.80937505       0.00000000    
   1.81437504       0.00000000    
   1.81937504       0.00000000    
   1.82437515       0.00000000    
   1.82937515       0.00000000    
   1.83437514       0.00000000    
   1.83937514       0.00000000    
   1.84437513       0.00000000    
   1.84937513       0.00000000    
   1.85437512       0.00000000    
   1.85937512       0.00000000    
   1.86437511       0.00000000    
   1.86937511       0.00000000    
   1.87437510       0.00000000    
   1.87937510       0.00000000    
   1.88437510       0.00000000    
   1.88937509       0.00000000    
   1.89437509       0.00000000    
   1.89937508       0.00000000    
   1.90437508       0.00000000    
   1.90937507       0.00000000    
   1.91437507       0.00000000    
   1.91937506       0.00000000    
   1.92437506       0.00000000    
   1.92937505       0.00000000    
   1.93437505       0.00000000    
   1.93937504       0.00000000    
   1.94437504       0.00000000    
   1.94937515       0.00000000    
   1.95437515       0.00000000    
   1.95937514       0.00000000    
   1.96437514       0.00000000    
   1.96937513       0.00000000    
   1.97437513       0.00000000    
   1.97937512       0.00000000    
   1.98437512       0.00000000    
   1.98937511       0.00000000    
   1.99437511       0.00000000    
   1.99937510       0.00000000    
   2.00437498       0.00000000    
   2.00937510       0.00000000    
   2.01437521       0.00000000    
   2.01937509       0.00000000    
   2.02437520       0.00000000    
   2.02937508       0.00000000    
   2.03437519       0.00000000    
   2.03937507       0.00000000    
   2.04437518       0.00000000    
   2.04937506       0.00000000    
   2.05437517       0.00000000    
   2.05937505       0.00000000    
   2.06437516       0.00000000    
   2.06937504       0.00000000    
   2.07437515       0.00000000    
   2.07937503       0.00000000    
   2.08437514       0.00000000    
   2.08937502       0.00000000    
   2.09437513       0.00000000    
   2.09937501       0.00000000    
   2.10437512       0.00000000    
   2.10937500       0.00000000    
   2.11437511       0.00000000    
   2.11937499       0.00000000    
   2.12437510       0.00000000    
   2.12937498       0.00000000    
   2.13437510       0.00000000    
   2.13937521       0.00000000    
   2.14437509       0.00000000    
   2.14937520       0.00000000    
   2.15437508       0.00000000    
   2.15937519       0.00000000    
   2.16437507       0.00000000    
   2.16937518       0.00000000    
   2.17437506       0.00000000    
   2.17937517       0.00000000    
   2.18437505       0.00000000    
   2.18937516       0.00000000    
   2.19437504       0.00000000    
   2.19937515       0.00000000    
   2.20437503       0.00000000    
   2.20937514       0.00000000    
   2.21437502       0.00000000    
   2.21937513       0.00000000    
   2.22437501       0.00000000    
   2.22937512       0.00000000    
   2.23437500       0.00000000    
   2.23937511       0.00000000    
   2.24437499       0.00000000    
   2.24937510       0.00000000    
   2.25437498       0.00000000    
   2.25937510       0.00000000    
   2.26437521       0.00000000    
   2.26937509       0.00000000    
   2.27437520       0.00000000    
   2.27937508       0.00000000    