  -2.000625        3.4086449E-31
  -1.995625        1.0218586E-30
  -1.990625        1.7013541E-30
  -1.985625        2.3793443E-30
  -1.980625        3.0570570E-30
  -1.975625        3.7483190E-30
  -1.970625        4.4851207E-30
  -1.965625        5.2093309E-30
  -1.960625        5.8847237E-30
  -1.955625        6.3786582E-30
  -1.950625        6.5615395E-30
  -1.945625        6.4870120E-30
  -1.940625        6.2910829E-30
  -1.935625        6.0878179E-30
  -1.930625        5.8104599E-30
  -1.925625        5.4299515E-30
  -1.920625        5.0528337E-30
  -1.915625        4.8626643E-30
  -1.910625        4.9348110E-30
  -1.905625        4.9884967E-30
  -1.900625        4.9065311E-30
  -1.895625        4.8676920E-30
  -1.890625        4.9037456E-30
  -1.885625        4.8927991E-30
  -1.880625        4.8996568E-30
  -1.875625        4.9899284E-30
  -1.870625        5.1286085E-30
  -1.865625        5.3239584E-30
  -1.860625        5.4236392E-30
  -1.855625        5.3059148E-30
  -1.850625        4.9231238E-30
  -1.845625        4.2424234E-30
  -1.840625        3.4175010E-30
  -1.835625        2.5515529E-30
  -1.830625        1.5526549E-30
  -1.825625        3.3469425E-31
  -1.820625       -1.0630687E-30
  -1.815625       -2.5707540E-30
  -1.810625       -4.1709425E-30
  -1.805625       -5.7565448E-30
  -1.800625       -7.0580570E-30
  -1.795625       -8.0326513E-30
  -1.790625       -8.8495954E-30
  -1.785625       -9.3936488E-30
  -1.780625       -9.5483439E-30
  -1.775625       -9.2385588E-30
  -1.770625       -8.3902250E-30
  -1.765625       -7.2127476E-30
  -1.760625       -6.0308078E-30
  -1.755625       -5.0350952E-30
  -1.750625       -4.2877163E-30
  -1.745625       -3.7580968E-30
  -1.740625       -3.4690576E-30
  -1.735625       -3.3988639E-30
  -1.730625       -3.3930594E-30
  -1.725625       -3.4147355E-30
  -1.720625       -3.5236916E-30
  -1.715625       -3.5744470E-30
  -1.710625       -3.4302531E-30
  -1.705625       -2.9979042E-30
  -1.700625       -2.4303720E-30
  -1.695625       -1.8895459E-30
  -1.690625       -1.2154806E-30
  -1.685625       -4.5922727E-31
  -1.680625        2.4944780E-31
  -1.675625        9.6565911E-31
  -1.670625        1.7100693E-30
  -1.665625        2.5097908E-30
  -1.660625        3.3636404E-30
  -1.655625        4.2322457E-30
  -1.650625        5.1497907E-30
  -1.645625        5.9999474E-30
  -1.640625        6.7237299E-30
  -1.635625        7.3392293E-30
  -1.630625        7.8071196E-30
  -1.625625        8.3260013E-30
  -1.620625        8.8442615E-30
  -1.615625        9.1872802E-30
  -1.610625        9.2232574E-30
  -1.605625        8.9375931E-30
  -1.600625        8.5580352E-30
  -1.595625        8.1726085E-30
  -1.590625        7.7640285E-30
  -1.585625        7.2516702E-30
  -1.580625        6.6049722E-30
  -1.575625        5.7395605E-30
  -1.570625        4.5855760E-30
  -1.565625        3.1554632E-30
  -1.560625        1.4643890E-30
  -1.555625       -3.5910276E-31
  -1.550625       -2.0696925E-30
  -1.545625       -3.5789590E-30
  -1.540625       -4.9699450E-30
  -1.535625       -6.2867146E-30
  -1.530625       -7.5502397E-30
  -1.525625       -8.6848479E-30
  -1.520625       -9.4716497E-30
  -1.515625       -9.7917709E-30
  -1.510625       -9.7644227E-30
  -1.505625       -9.5045508E-30
  -1.500625       -9.0815474E-30
  -1.495625       -8.4006070E-30
  -1.490625       -7.3831307E-30
  -1.485625       -6.1618519E-30
  -1.480625       -4.7873420E-30
  -1.475625       -3.3366334E-30
  -1.470625       -1.8488580E-30
  -1.465625       -5.0646263E-31
  -1.460625        5.0421029E-31
  -1.455625        1.2960691E-30
  -1.450625        1.9127749E-30
  -1.445625        2.3551390E-30
  -1.440625        2.6160610E-30
  -1.435625        2.7571186E-30
  -1.430625        2.8056122E-30
  -1.425625        2.7206305E-30
  -1.420625        2.5562488E-30
  -1.415625        2.1433906E-30
  -1.410625        1.5253707E-30
  -1.405625        8.3147164E-31
  -1.400625        1.6524296E-31
  -1.395625       -3.5729160E-31
  -1.390625       -8.0574881E-31
  -1.385625       -1.1129642E-30
  -1.380625       -1.2190561E-30
  -1.375625       -1.1503880E-30
  -1.370625       -9.3390844E-31
  -1.365625       -5.3735721E-31
  -1.360625        1.7903349E-31
  -1.355625        1.2669807E-30
  -1.350625        2.6598277E-30
  -1.345625        4.1402999E-30
  -1.340625        5.6250391E-30
  -1.335625        6.9829119E-30
  -1.330625        8.0371065E-30
  -1.325625        8.7048957E-30
  -1.320625        8.9503645E-30
  -1.315625        8.9097055E-30
  -1.310625        8.5145799E-30
  -1.305625        7.7166972E-30
  -1.300625        6.6045682E-30
  -1.295625        5.1993612E-30
  -1.290625        3.4834603E-30
  -1.285625        1.5795212E-30
  -1.280625       -3.9787573E-31
  -1.275625       -2.4475639E-30
  -1.270625       -4.3828869E-30
  -1.265625       -5.9983013E-30
  -1.260625       -7.4761396E-30
  -1.255625       -8.8251963E-30
  -1.250625       -9.9570104E-30
  -1.245625       -1.0765891E-29
  -1.240625       -1.1058295E-29
  -1.235625       -1.0873396E-29
  -1.230625       -1.0196291E-29
  -1.225625       -9.0707787E-30
  -1.220625       -7.6100744E-30
  -1.215625       -5.9191422E-30
  -1.210625       -4.1346993E-30
  -1.205625       -2.2466138E-30
  -1.200625       -4.7268998E-31
  -1.195625        8.6202668E-31
  -1.190625        1.8451722E-30
  -1.185625        2.6876905E-30
  -1.180625        3.6062248E-30
  -1.175625        4.4769411E-30
  -1.170625        5.3752178E-30
  -1.165625        6.4717505E-30
  -1.160625        7.3853222E-30
  -1.155625        8.2094758E-30
  -1.150625        9.0996692E-30
  -1.145625        9.9463080E-30
  -1.140625        1.0387708E-29
  -1.135625        1.0127108E-29
  -1.130625        9.1365921E-30
  -1.125625        7.2168883E-30
  -1.120625        4.0493106E-30
  -1.115625       -2.9208637E-31
  -1.110625       -5.5444913E-30
  -1.105625       -1.1652646E-29
  -1.100625       -1.8457578E-29
  -1.095625       -2.5733457E-29
  -1.090625       -3.3223760E-29
  -1.085625       -4.0405634E-29
  -1.080625       -4.6575543E-29
  -1.075625       -5.1069788E-29
  -1.070625       -5.3170400E-29
  -1.065625       -5.2392499E-29
  -1.060625       -4.7667500E-29
  -1.055625       -3.7900998E-29
  -1.050625       -2.2497271E-29
  -1.045625       -7.5104191E-31
  -1.040625        2.7951560E-29
  -1.035625        6.4279049E-29
  -1.030625        1.0841648E-28
  -1.025625        1.6009476E-28
  -1.020625        2.1878388E-28
  -1.015625        2.8288394E-28
  -1.010625        3.4952167E-28
  -1.005625        4.1482109E-28
  -1.000625        4.7342974E-28
 -0.9956249        5.1823371E-28
 -0.9906249        5.3992652E-28
 -0.9856249        5.2738847E-28
 -0.9806249        4.6775036E-28
 -0.9756249        3.4684799E-28
 -0.9706249        1.5038128E-28
 -0.9656249       -1.3482776E-28
 -0.9606249       -5.1939707E-28
 -0.9556249       -1.0085873E-27
 -0.9506249       -1.5995592E-27
 -0.9456249       -2.2792686E-27
 -0.9406249       -3.0205372E-27
 -0.9356249       -3.7799634E-27
 -0.9306249       -4.4962167E-27
 -0.9256249       -5.0880157E-27
 -0.9206249       -5.4550949E-27
 -0.9156249       -5.4817193E-27
 -0.9106249       -5.0415904E-27
 -0.9056249       -4.0056462E-27
 -0.9006249       -2.2532573E-27
 -0.8956249        3.1271763E-28
 -0.8906249        3.7487468E-27
 -0.8856249        8.0519140E-27
 -0.8806249        1.3139942E-26
 -0.8756249        1.8832715E-26
 -0.8706249        2.4836403E-26
 -0.8656249        3.0732982E-26
 -0.8606249        3.5978525E-26
 -0.8556249        3.9912122E-26
 -0.8506249        4.1777226E-26
 -0.8456249        4.0759364E-26
 -0.8406249        3.6040778E-26
 -0.8356249        2.6870599E-26
 -0.8306249        1.2649686E-26
 -0.8256249       -6.9717092E-27
 -0.8206249       -3.1989786E-26
 -0.8156249       -6.1946504E-26
 -0.8106249       -9.5836801E-26
 -0.8056249       -1.3203699E-25
 -0.8006249       -1.6826784E-25
 -0.7956249       -2.0160265E-25
 -0.7906249       -2.2853332E-25
 -0.7856249       -2.4510155E-25
 -0.7806249       -2.4710269E-25
 -0.7756249       -2.3036661E-25
 -0.7706249       -1.9110738E-25
 -0.7656249       -1.2633239E-25
 -0.7606249       -3.4291910E-26
 -0.7556249        8.5059050E-26
 -0.7506249        2.2962129E-25
 -0.7456249        3.9477622E-25
 -0.7406249        5.7312017E-25
 -0.7356249        7.5435953E-25
 -0.7306249        9.2541154E-25
 -0.7256249        1.0707503E-24
 -0.7206249        1.1730298E-24
 -0.7156249        1.2139984E-24
 -0.7106249        1.1756987E-24
 -0.7056249        1.0419208E-24
 -0.7006249        7.9985348E-25
 -0.6956249        4.4184582E-25
 -0.6906249       -3.2834563E-26
 -0.6856249       -6.1638539E-25
 -0.6806249       -1.2911536E-24
 -0.6756249       -2.0287850E-24
 -0.6706249       -2.7900056E-24
 -0.6656249       -3.5251875E-24
 -0.6606249       -4.1758182E-24
 -0.6556249       -4.6769500E-24
 -0.6506249       -4.9606429E-24
 -0.6456249       -4.9603408E-24
 -0.6406249       -4.6160393E-24
 -0.6356249       -3.8800120E-24
 -0.6306249       -2.7227672E-24
 -0.6256249       -1.1388442E-24
 -0.6206249        8.4802991E-25
 -0.6156249        3.1809215E-24
 -0.6106249        5.7673341E-24
 -0.6056249        8.4789989E-24
 -0.6006249        1.1154232E-23
 -0.5956249        1.3603158E-23
 -0.5906249        1.5615940E-23
 -0.5856249        1.6973947E-23
 -0.5806249        1.7463596E-23
 -0.5756249        1.6892300E-23
 -0.5706249        1.5105738E-23
 -0.5656249        1.2005429E-23
 -0.5606249        7.5653662E-24
 -0.5556249        1.8463743E-24
 -0.5506249       -4.9932825E-24
 -0.5456249       -1.2692393E-23
 -0.5406249       -2.0887650E-23
 -0.5356249       -2.9121870E-23
 -0.5306249       -3.6860166E-23
 -0.5256249       -4.3514183E-23
 -0.5206249       -4.8474007E-23
 -0.5156249       -5.1146598E-23
 -0.5106249       -5.0999113E-23
 -0.5056249       -4.7604704E-23
 -0.5006249       -4.0687969E-23
 -0.4956249       -3.0166738E-23
 -0.4906249       -1.6186646E-23
 -0.4856249        8.5498816E-25
 -0.4806249        2.0299325E-23
 -0.4756249        4.1232952E-23
 -0.4706249        6.2513579E-23
 -0.4656249        8.2815381E-23
 -0.4606249        1.0069365E-22
 -0.4556249        1.1466675E-22
 -0.4506249        1.2331235E-22
 -0.4456249        1.2537278E-22
 -0.4406249        1.1986355E-22
 -0.4356249        1.0617765E-22
 -0.4306249        8.4177694E-23
 -0.4256249        5.4267774E-23
 -0.4206249        1.7436974E-23
 -0.4156249       -2.4732332E-23
 -0.4106249       -7.0096665E-23
 -0.4056249       -1.1602754E-22
 -0.4006249       -1.5953176E-22
 -0.3956249       -1.9741346E-22
 -0.3906249       -2.2647212E-22
 -0.3856249       -2.4372674E-22
 -0.3806249       -2.4665441E-22
 -0.3756249       -2.3342803E-22
 -0.3706249       -2.0313557E-22
 -0.3656249       -1.5596363E-22
 -0.3606249       -9.3327010E-23
 -0.3556249       -1.7927637E-23
 -0.3506249        6.6270539E-23
 -0.3456249        1.5416018E-22
 -0.3406249        2.3970739E-22
 -0.3356249        3.1626431E-22
 -0.3306249        3.7696861E-22
 -0.3256249        4.1521306E-22
 -0.3206249        4.2516215E-22
 -0.3156249        4.0228561E-22
 -0.3106249        3.4387333E-22
 -0.3056249        2.4949343E-22
 -0.3006249        1.2135368E-22
 -0.2956249       -3.5473055E-23
 -0.2906249       -2.1299366E-22
 -0.2856249       -4.0043703E-22
 -0.2806249       -5.8461303E-22
 -0.2756249       -7.5049303E-22
 -0.2706249       -8.8200364E-22
 -0.2656249       -9.6301130E-22
 -0.2606249       -9.7845581E-22
 -0.2556249       -9.1558049E-22
 -0.2506249       -7.6518831E-22
 -0.2456249       -5.2284615E-22
 -0.2406249       -1.8994649E-22
 -0.2356249        2.2545980E-22
 -0.2306249        7.0814900E-22
 -0.2256249        1.2356070E-21
 -0.2206249        1.7783741E-21
 -0.2156249        2.3008946E-21
 -0.2106249        2.7628889E-21
 -0.2056249        3.1212410E-21
 -0.2006249        3.3323492E-21
 -0.1956249        3.3548640E-21
 -0.1906249        3.1526961E-21
 -0.1856249        2.6981478E-21
 -0.1806249        1.9749913E-21
 -0.1756249        9.8130268E-22
 -0.1706249       -2.6815947E-22
 -0.1656249       -1.7402380E-21
 -0.1606249       -3.3825190E-21
 -0.1556249       -5.1235010E-21
 -0.1506249       -6.8739339E-21
 -0.1456249       -8.5294010E-21
 -0.1406249       -9.9741810E-21
 -0.1356249       -1.1086329E-20
 -0.1306249       -1.1743867E-20
 -0.1256249       -1.1831855E-20
 -0.1206249       -1.1250103E-20
 -0.1156249       -9.9211106E-21
 -0.1106249       -7.7978882E-21
 -0.1056249       -4.8711289E-21
 -0.1006249       -1.1752917E-21
 -9.5624901E-02    3.2069140E-21
 -9.0624899E-02    8.1421084E-21
 -8.5624903E-02    1.3446274E-20
 -8.0624901E-02    1.8887613E-20
 -7.5624906E-02    2.4192387E-20
 -7.0624903E-02    2.9053853E-20
 -6.5624900E-02    3.3144213E-20
 -6.0624901E-02    3.6129294E-20
 -5.5624902E-02    3.7685544E-20
 -5.0624903E-02    3.7518709E-20
 -4.5624901E-02    3.5383397E-20
 -4.0624902E-02    3.1102628E-20
 -3.5624903E-02    2.4586297E-20
 -3.0624902E-02    1.5847415E-20
 -2.5624903E-02    5.0150850E-21
 -2.0624902E-02   -7.6570284E-21
 -1.5624902E-02   -2.1787530E-20
 -1.0624902E-02   -3.6870364E-20
 -5.6249024E-03   -5.2284681E-20
 -6.2490237E-04   -6.7311758E-20
  4.3750978E-03   -8.1158903E-20
  9.3750972E-03   -9.2989971E-20
  1.4375098E-02   -1.0196162E-19
  1.9375097E-02   -1.0726413E-19
  2.4375098E-02   -1.0816523E-19
  2.9375097E-02   -1.0405506E-19
  3.4375098E-02   -9.4490005E-20
  3.9375097E-02   -7.9233337E-20
  4.4375099E-02   -5.8290106E-20
  4.9375098E-02   -3.1934089E-20
  5.4375097E-02   -7.2462274E-22
  5.9375096E-02    3.4488443E-20
  6.4375095E-02    7.2573059E-20
  6.9375098E-02    1.1213730E-19
  7.4375100E-02    1.5156611E-19
  7.9375096E-02    1.8907198E-19
  8.4375098E-02    2.2275811E-19
  8.9375101E-02    2.5069262E-19
  9.4375096E-02    2.7099091E-19
  9.9375099E-02    2.8190341E-19
  0.1043751        2.8190496E-19
  0.1093751        2.6978193E-19
  0.1143751        2.4471324E-19
  0.1193751        2.0634144E-19
  0.1243751        1.5483014E-19
  0.1293751        9.0903744E-20
  0.1343751        1.5867937E-20
  0.1393751       -6.8391836E-20
  0.1443751       -1.5943460E-19
  0.1493751       -2.5431164E-19
  0.1543751       -3.4963684E-19
  0.1593751       -4.4167826E-19
  0.1643751       -5.2646841E-19
  0.1693751       -5.9993042E-19
  0.1743751       -6.5801701E-19
  0.1793751       -6.9685763E-19
  0.1843751       -7.1291011E-19
  0.1893751       -7.0311195E-19
  0.1943751       -6.6502824E-19
  0.1993751       -5.9699062E-19
  0.2043751       -4.9822396E-19
  0.2093751       -3.6895773E-19
  0.2143751       -2.1051743E-19
  0.2193751       -2.5393815E-20
  0.2243751        1.8271461E-19
  0.2293751        4.0888833E-19
  0.2343751        6.4700672E-19
  0.2393751        8.8980439E-19
  0.2443751        1.1289669E-18
  0.2493751        1.3552709E-18
  0.2543751        1.5587723E-18
  0.2593751        1.7290424E-18
  0.2643751        1.8554575E-18
  0.2693751        1.9275422E-18
  0.2743751        1.9353601E-18
  0.2793751        1.8699551E-18
  0.2843751        1.7238315E-18
  0.2893751        1.4914609E-18
  0.2943751        1.1698053E-18
  0.2993751        7.5883213E-19
  0.3043751        2.6200134E-19
  0.3093751       -3.1330794E-19
  0.3143751       -9.5545916E-19
  0.3193751       -1.6483417E-18
  0.3243751       -2.3713144E-18
  0.3293751       -3.0993384E-18
  0.3343751       -3.8033305E-18
  0.3393751       -4.4507652E-18
  0.3443751       -5.0065338E-18
  0.3493751       -5.4340758E-18
  0.3543751       -5.6967710E-18
  0.3593751       -5.7595647E-18
  0.3643751       -5.5907971E-18
  0.3693751       -5.1641676E-18
  0.3743751       -4.4607741E-18
  0.3793751       -3.4711274E-18
  0.3843751       -2.1970333E-18
  0.3893751       -6.5323539E-19
  0.3943751        1.1313007E-18
  0.3993751        3.1125919E-18
  0.4043751        5.2314500E-18
  0.4093751        7.4139818E-18
  0.4143751        9.5728851E-18
  0.4193751        1.1609577E-17
  0.4243751        1.3417172E-17
  0.4293751        1.4884308E-17
  0.4343751        1.5899710E-17
  0.4393751        1.6357412E-17
  0.4443751        1.6162452E-17
  0.4493751        1.5236821E-17
  0.4543751        1.3525402E-17
  0.4593751        1.1001646E-17
  0.4643751        7.6726064E-18
  0.4693751        3.5830420E-18
  0.4743751       -1.1817487E-18
  0.4793751       -6.4946578E-18
  0.4843751       -1.2187337E-17
  0.4893751       -1.8052805E-17
  0.4943751       -2.3850234E-17
  0.4993751       -2.9311939E-17
  0.5043751       -3.4152511E-17
  0.5093751       -3.8079898E-17
  0.5143751       -4.0808191E-17
  0.5193751       -4.2071617E-17
  0.5243751       -4.1639263E-17
  0.5293751       -3.9329914E-17
  0.5343751       -3.5026281E-17
  0.5393751       -2.8687884E-17
  0.5443751       -2.0361779E-17
  0.5493751       -1.0190451E-17
  0.5543751        1.5838880E-18
  0.5593751        1.4619182E-17
  0.5643751        2.8478058E-17
  0.5693751        4.2637309E-17
  0.5743751        5.6502385E-17
  0.5793751        6.9426778E-17
  0.5843751        8.0735945E-17
  0.5893751        8.9755046E-17
  0.5943751        9.5839634E-17
  0.5993751        9.8408195E-17
  0.6043751        9.6975221E-17
  0.6093751        9.1183196E-17
  0.6143751        8.0832050E-17
  0.6193751        6.5904371E-17
  0.6243751        4.6584810E-17
  0.6293751        2.3272167E-17
  0.6343751       -3.4170713E-18
  0.6393751       -3.2654857E-17
  0.6443751       -6.3417853E-17
  0.6493751       -9.4514233E-17
  0.6543751       -1.2462071E-16
  0.6593751       -1.5232909E-16
  0.6643751       -1.7620109E-16
  0.6693751       -1.9482978E-16
  0.6743751       -2.0690520E-16
  0.6793751       -2.1128182E-16
  0.6843751       -2.0704484E-16
  0.6893751       -1.9357211E-16
  0.6943751       -1.7058858E-16
  0.6993751       -1.3821004E-16
  0.7043751       -9.6973215E-17
  0.7093751       -4.7849775E-17
  0.7143751        7.7579442E-18
  0.7193751        6.8040793E-17
  0.7243751        1.3082694E-16
  0.7293751        1.9364600E-16
  0.7343751        2.5381181E-16
  0.7393751        3.0852193E-16
  0.7443751        3.5497070E-16
  0.7493751        3.9047184E-16
  0.7543751        4.1258583E-16
  0.7593751        4.1924703E-16
  0.7643751        4.0888454E-16
  0.7693751        3.8053095E-16
  0.7743751        3.3391323E-16
  0.7793751        2.6952011E-16
  0.7843751        1.8864160E-16
  0.7893751        9.3375939E-17
  0.7943751       -1.3398131E-17
  0.7993751       -1.2808574E-16
  0.8043751       -2.4647626E-16
  0.8093751       -3.6387842E-16
  0.8143751       -4.7528649E-16
  0.8193751       -5.7557270E-16
  0.8243751       -6.5969891E-16
  0.8293751       -7.2293981E-16
  0.8343751       -7.6110897E-16
  0.8393751       -7.7077717E-16
  0.8443751       -7.4947323E-16
  0.8493751       -6.9585789E-16
  0.8543751       -6.0986012E-16
  0.8593751       -4.9276782E-16
  0.8643751       -3.4726617E-16
  0.8693751       -1.7741793E-16
  0.8743751        1.1417211E-17
  0.8793751        2.1272442E-16
  0.8843751        4.1903461E-16
  0.8893751        6.2217942E-16
  0.8943751        8.1359262E-16
  0.8993751        9.8464764E-16
  0.9043751        1.1270185E-15
  0.9093751        1.2330504E-15
  0.9143751        1.2961234E-15
  0.9193751        1.3109946E-15
  0.9243751        1.2741016E-15
  0.9293751        1.1838104E-15
  0.9343751        1.0405976E-15
  0.9393751        8.4715137E-16
  0.9443751        6.0838480E-16
  0.9493751        3.3135484E-16
  0.9543751        2.5086227E-17
  0.9593751       -2.9969775E-16
  0.9643751       -6.3093075E-16
  0.9693751       -9.5563411E-16
  0.9743751       -1.2604081E-15
  0.9793751       -1.5319661E-15
  0.9843751       -1.7576911E-15
  0.9893751       -1.9261889E-15
  0.9943751       -2.0278197E-15
  0.9993751       -2.0551791E-15
   1.004375       -2.0035082E-15
   1.009375       -1.8710117E-15
   1.014375       -1.6590665E-15
   1.019375       -1.3723080E-15
   1.024375       -1.0185831E-15
   1.029375       -6.0876877E-16
   1.034375       -1.5645781E-16
   1.039375        3.2248087E-16
   1.044375        8.1045314E-16
   1.049375        1.2887829E-15
   1.054375        1.7384231E-15
   1.059375        2.1407093E-15
   1.064375        2.4781232E-15
   1.069375        2.7350370E-15
   1.074375        2.8984044E-15
   1.079375        2.9583720E-15
   1.084375        2.9087787E-15
   1.089375        2.7475206E-15
   1.094375        2.4767656E-15
   1.099375        2.1030018E-15
   1.104375        1.6369131E-15
   1.109375        1.0930828E-15
   1.114375        4.8953607E-16
   1.119375       -1.5286757E-16
   1.124375       -8.1116984E-16
   1.129375       -1.4611494E-15
   1.134375       -2.0782263E-15
   1.139375       -2.6384001E-15
   1.144375       -3.1191887E-15
   1.149375       -3.5005218E-15
   1.154375       -3.7655646E-15
   1.159375       -3.9014261E-15
   1.164375       -3.8997308E-15
   1.169375       -3.7570295E-15
   1.174375       -3.4750219E-15
   1.179375       -3.0605933E-15
   1.184375       -2.5256483E-15
   1.189375       -1.8867591E-15
   1.194375       -1.1646274E-15
   1.199375       -3.8338821E-16
   1.204375        4.3022561E-16
   1.209375        1.2478238E-15
   1.214375        2.0403715E-15
   1.219375        2.7792377E-15
   1.224375        3.4372370E-15
   1.229375        3.9896319E-15
   1.234375        4.4150534E-15
   1.239375        4.6963077E-15
   1.244375        4.8210401E-15
   1.249375        4.7822299E-15
   1.254375        4.5784981E-15
   1.259375        4.2142172E-15
   1.264375        3.6994198E-15
   1.269375        3.0494995E-15
   1.274375        2.2847301E-15
   1.279375        1.4296023E-15
   1.284375        5.1201141E-16
   1.289375       -4.3767826E-16
   1.294375       -1.3876631E-15
   1.299375       -2.3057882E-15
   1.304375       -3.1606533E-15
   1.309375       -3.9227015E-15
   1.314375       -4.5652522E-15
   1.319375       -5.0654413E-15
   1.324375       -5.4050367E-15
   1.329375       -5.5711026E-15
   1.334375       -5.5564798E-15
   1.339375       -5.3600779E-15
   1.344375       -4.9869480E-15
   1.349375       -4.4481550E-15
   1.354375       -3.7604278E-15
   1.359375       -2.9456168E-15
   1.364375       -2.0299625E-15
   1.369375       -1.0432067E-15
   1.374375       -1.7571558E-17
   1.379375        1.0133564E-15
   1.384375        2.0157970E-15
   1.389375        2.9569609E-15
   1.394375        3.8062061E-15
   1.399375        4.5361194E-15
   1.404375        5.1234829E-15
   1.409375        5.5500877E-15
   1.414375        5.8033624E-15
   1.419375        5.8767887E-15
   1.424375        5.7700863E-15
   1.429375        5.4891581E-15
   1.434375        5.0457981E-15
   1.439375        4.4571666E-15
   1.444375        3.7450596E-15
   1.449375        2.9349988E-15
   1.454375        2.0551838E-15
   1.459375        1.1353453E-15
   1.464375        2.0555528E-16
   1.469375       -7.0495519E-16
   1.474375       -1.5689187E-15
   1.479375       -2.3620409E-15
   1.484375       -3.0638528E-15
   1.489375       -3.6583683E-15
   1.494375       -4.1345118E-15
   1.499375       -4.4863058E-15
   1.504375       -4.7128037E-15
   1.509375       -4.8177836E-15
   1.514375       -4.8092151E-15
   1.519375       -4.6985341E-15
   1.524375       -4.4997685E-15
   1.529375       -4.2285676E-15
   1.534375       -3.9011843E-15
   1.539375       -3.5334750E-15
   1.544375       -3.1399795E-15
   1.549375       -2.7331199E-15
   1.554375       -2.3225840E-15
   1.559375       -1.9149172E-15
   1.564375       -1.5133514E-15
   1.569375       -1.1178781E-15
   1.574375       -7.2556286E-16
   1.579375       -3.3108059E-16
   1.584375        7.2567013E-17
   1.589375        4.9319589E-16
   1.594375        9.3850340E-16
   1.599375        1.4151098E-15
   1.604375        1.9276501E-15
   1.609375        2.4779727E-15
   1.614375        3.0645023E-15
   1.619375        3.6818142E-15
   1.624375        4.3204554E-15
   1.629375        4.9670266E-15
   1.634375        5.6045286E-15
   1.639375        6.2129524E-15
   1.644375        6.7700853E-15
   1.649375        7.2524774E-15
   1.654375        7.6365085E-15
   1.659375        7.8994979E-15
   1.664375        8.0207659E-15
   1.669375        7.9825960E-15
   1.674375        7.7710199E-15
   1.679375        7.3763949E-15
   1.684375        6.7937103E-15
   1.689375        6.0226351E-15
   1.694375        5.0672971E-15
   1.699375        3.9358254E-15
   1.704375        2.6397072E-15
   1.709375        1.1930221E-15
   1.714375       -3.8836495E-16
   1.719375       -2.0875578E-15
   1.724375       -3.8872498E-15
   1.729375       -5.7701189E-15
   1.734375       -7.7189308E-15
   1.739375       -9.7162946E-15
   1.744375       -1.1744053E-14
   1.749375       -1.3782311E-14
   1.754375       -1.5808150E-14
   1.759375       -1.7794094E-14
   1.764375       -1.9706464E-14
   1.769375       -2.1503741E-14
   1.774375       -2.3135118E-14
   1.779375       -2.4539419E-14
   1.784375       -2.5644575E-14
   1.789375       -2.6367832E-14
   1.794375       -2.6616841E-14
   1.799375       -2.6291754E-14
   1.804375       -2.5288391E-14
   1.809375       -2.3502522E-14
   1.814375       -2.0835149E-14
   1.819375       -1.7198714E-14
   1.824375       -1.2523989E-14
   1.829375       -6.7674172E-15
   1.834375        8.1476265E-17
   1.839375        7.9929849E-15
   1.844375        1.6890838E-14
   1.849375        2.6647020E-14
   1.854375        3.7078213E-14
   1.859375        4.7944257E-14
   1.864375        5.8949007E-14
   1.869375        6.9743887E-14
   1.874375        7.9934276E-14
   1.879375        8.9088777E-14
   1.884375        9.6751342E-14
   1.889375        1.0245601E-13
   1.894375        1.0574390E-13
   1.899375        1.0618190E-13
   1.904375        1.0338257E-13
   1.909375        9.7024419E-14
   1.914375        8.6871692E-14
   1.919375        7.2793009E-14
   1.924375        5.4777821E-14
   1.929375        3.2949876E-14
   1.934375        7.5769647E-15
   1.939375       -2.0923777E-14
   1.944375       -5.1985522E-14
   1.949375       -8.4896784E-14
   1.954375       -1.1881196E-13
   1.959375       -1.5276738E-13
   1.964375       -1.8570283E-13
   1.969375       -2.1648776E-13
   1.974375       -2.4395194E-13
   1.979375       -2.6691971E-13
   1.984375       -2.8424653E-13
   1.989375       -2.9485751E-13
   1.994375       -2.9778586E-13
   1.999375       -2.9221116E-13
   2.004375       -2.7749526E-13
   2.009375       -2.5321550E-13
   2.014375       -2.1919357E-13
   2.019375       -1.7551939E-13
   2.024375       -1.2256911E-13
   2.029375       -6.1016310E-14
   2.034375        8.1639780E-15
   2.039375        8.3698958E-14
   2.044375        1.6402973E-13
   2.049375        2.4733110E-13
   2.054375        3.3153932E-13
   2.059375        4.1438790E-13
   2.064375        4.9345071E-13
   2.069375        5.6619260E-13
   2.074375        6.3002603E-13
   2.079375        6.8237348E-13
   2.084375        7.2073510E-13
   2.089375        7.4275926E-13
   2.094375        7.4631599E-13
   2.099375        7.2957130E-13
   2.104375        6.9106049E-13
   2.109375        6.2975937E-13
   2.114375        5.4515062E-13
   2.119375        4.3728416E-13
   2.124375        3.0682824E-13
   2.129375        1.5511012E-13
   2.134375       -1.5856372E-14
   2.139375       -2.0335845E-13
   2.144375       -4.0398883E-13
   2.149375       -6.1366884E-13
   2.154375       -8.2769100E-13
   2.159375       -1.0407829E-12
   2.164375       -1.2471909E-12
   2.169375       -1.4407856E-12
   2.174375       -1.6151857E-12
   2.179375       -1.7639005E-12
   2.184375       -1.8804884E-12
   2.189375       -1.9587277E-12
   2.194375       -1.9927963E-12
   2.199375       -1.9774590E-12
   2.204375       -1.9082518E-12
   2.209375       -1.7816664E-12
   2.214375       -1.5953237E-12
   2.219375       -1.3481345E-12
   2.224375       -1.0404412E-12
   2.229375       -6.7413837E-13
   2.234375       -2.5276471E-13
   2.239375        2.1843444E-13
   2.244375        7.3247810E-13
   2.249375        1.2806558E-12
   2.254375        1.8525715E-12
   2.259375        2.4362248E-12
   2.264375        3.0181302E-12
   2.269375        3.5834725E-12
   2.274375        4.1162984E-12
   2.279375        4.5997433E-12
   2.284375        5.0162825E-12
   2.289375        5.3480185E-12
   2.294375        5.5769825E-12
   2.299375        5.6854656E-12
   2.304375        5.6563530E-12
   2.309375        5.4734758E-12
   2.314375        5.1219662E-12
   2.319375        4.5886047E-12
   2.324375        3.8621667E-12
   2.329375        2.9337513E-12
   2.334375        1.7970883E-12
   2.339375        4.4881717E-13
   2.344375       -1.1112683E-12
   2.349375       -2.8800209E-12
   2.354375       -4.8507886E-12
   2.359375       -7.0133213E-12
   2.364375       -9.3537426E-12
   2.369375       -1.1854588E-11
   2.374375       -1.4494927E-11
   2.379375       -1.7250543E-11
   2.384375       -2.0094221E-11
   2.389375       -2.2996091E-11
   2.394375       -2.5924063E-11
   2.399375       -2.8844333E-11
   2.404375       -3.1721958E-11
   2.409375       -3.4521490E-11
   2.414375       -3.7207643E-11
   2.419375       -3.9746029E-11
   2.424375       -4.2103869E-11
   2.429375       -4.4250745E-11
   2.434375       -4.6159309E-11
   2.439375       -4.7805950E-11
   2.444375       -4.9171445E-11
   2.449375       -5.0241505E-11
   2.454375       -5.1007223E-11
   2.459375       -5.1465457E-11
   2.464375       -5.1619053E-11
   2.469375       -5.1476972E-11
   2.474375       -5.1054255E-11
   2.479375       -5.0371891E-11
   2.484375       -4.9456508E-11
   2.489375       -4.8339967E-11
   2.494375       -4.7058836E-11
   2.499375       -4.5653738E-11
   2.504375       -4.4168637E-11
   2.509375       -4.2650040E-11
   2.514375       -4.1146156E-11
   2.519375       -3.9706009E-11
   2.524375       -3.8378606E-11
   2.529375       -3.7212049E-11
   2.534375       -3.6252740E-11
   2.539375       -3.5544630E-11