  -2.000625        3.2314149E-31
  -1.995625        9.6872922E-31
  -1.990625        1.6128785E-30
  -1.985625        2.2557723E-30
  -1.980625        2.9035412E-30
  -1.975625        3.5772091E-30
  -1.970625        4.2564684E-30
  -1.965625        4.8790426E-30
  -1.960625        5.4328358E-30
  -1.955625        5.8871074E-30
  -1.950625        6.2895711E-30
  -1.945625        6.7263201E-30
  -1.940625        7.0268682E-30
  -1.935625        7.1350724E-30
  -1.930625        7.1603028E-30
  -1.925625        7.1277178E-30
  -1.920625        7.0702408E-30
  -1.915625        6.8927867E-30
  -1.910625        6.5108996E-30
  -1.905625        6.0790275E-30
  -1.900625        5.7769548E-30
  -1.895625        5.5907595E-30
  -1.890625        5.4137195E-30
  -1.885625        5.1344871E-30
  -1.880625        4.7420518E-30
  -1.875625        4.3538464E-30
  -1.870625        4.0049589E-30
  -1.865625        3.6567572E-30
  -1.860625        3.3554936E-30
  -1.855625        3.1668991E-30
  -1.850625        3.0344243E-30
  -1.845625        2.8410538E-30
  -1.840625        2.5887327E-30
  -1.835625        2.3003501E-30
  -1.830625        1.9668518E-30
  -1.825625        1.6266624E-30
  -1.820625        1.2963639E-30
  -1.815625        9.2636234E-31
  -1.810625        5.7142412E-31
  -1.805625        4.1369398E-31
  -1.800625        3.5754889E-31
  -1.795625        2.0496180E-31
  -1.790625       -1.2023978E-31
  -1.785625       -7.1177363E-31
  -1.780625       -1.5982104E-30
  -1.775625       -2.5349684E-30
  -1.770625       -3.3526476E-30
  -1.765625       -3.9997047E-30
  -1.760625       -4.4258137E-30
  -1.755625       -4.6569159E-30
  -1.750625       -4.7351023E-30
  -1.745625       -4.5401959E-30
  -1.740625       -4.0525444E-30
  -1.735625       -3.5171716E-30
  -1.730625       -2.9051664E-30
  -1.725625       -2.0801304E-30
  -1.720625       -1.0474785E-30
  -1.715625        4.8341262E-32
  -1.710625        1.0689286E-30
  -1.705625        2.0098335E-30
  -1.700625        2.7965191E-30
  -1.695625        3.3240283E-30
  -1.690625        3.5345374E-30
  -1.685625        3.5084406E-30
  -1.680625        3.3759355E-30
  -1.675625        3.1337929E-30
  -1.670625        2.7898109E-30
  -1.665625        2.2823035E-30
  -1.660625        1.7313657E-30
  -1.655625        1.3380911E-30
  -1.650625        1.0737792E-30
  -1.645625        8.7547011E-31
  -1.640625        7.5403435E-31
  -1.635625        7.8981606E-31
  -1.630625        9.6527487E-31
  -1.625625        1.2912533E-30
  -1.620625        1.9196631E-30
  -1.615625        2.6325072E-30
  -1.610625        3.2909196E-30
  -1.605625        3.9954075E-30
  -1.600625        4.6320383E-30
  -1.595625        5.1873441E-30
  -1.590625        5.7677671E-30
  -1.585625        6.1331280E-30
  -1.580625        6.1316449E-30
  -1.575625        6.0893733E-30
  -1.570625        6.1915924E-30
  -1.565625        6.3344596E-30
  -1.560625        6.4959390E-30
  -1.555625        6.6623461E-30
  -1.550625        6.7374567E-30
  -1.545625        6.7335642E-30
  -1.540625        6.6623822E-30
  -1.535625        6.5749503E-30
  -1.530625        6.2703727E-30
  -1.525625        5.6533642E-30
  -1.520625        4.9468165E-30
  -1.515625        4.1346707E-30
  -1.510625        3.0613204E-30
  -1.505625        1.8506496E-30
  -1.500625        6.4605847E-31
  -1.495625       -5.8588519E-31
  -1.490625       -1.7789179E-30
  -1.485625       -2.8383703E-30
  -1.480625       -3.6263907E-30
  -1.475625       -4.1061169E-30
  -1.470625       -4.5375169E-30
  -1.465625       -5.0261731E-30
  -1.460625       -5.3709567E-30
  -1.455625       -5.6577672E-30
  -1.450625       -5.9055542E-30
  -1.445625       -6.0742251E-30
  -1.440625       -6.3441772E-30
  -1.435625       -6.7011378E-30
  -1.430625       -7.1464264E-30
  -1.425625       -7.6367478E-30
  -1.420625       -8.0287829E-30
  -1.415625       -8.2714952E-30
  -1.410625       -8.1954834E-30
  -1.405625       -7.9074779E-30
  -1.400625       -7.6286175E-30
  -1.395625       -7.0927599E-30
  -1.390625       -6.2964608E-30
  -1.385625       -5.4815957E-30
  -1.380625       -4.6555614E-30
  -1.375625       -3.8000497E-30
  -1.370625       -2.8921310E-30
  -1.365625       -1.9646569E-30
  -1.360625       -1.0375869E-30
  -1.355625        2.7157452E-32
  -1.350625        1.2802457E-30
  -1.345625        2.5799317E-30
  -1.340625        3.9669000E-30
  -1.335625        5.3133838E-30
  -1.330625        6.3768165E-30
  -1.325625        7.1867844E-30
  -1.320625        7.5250860E-30
  -1.315625        7.2897682E-30
  -1.310625        6.6350641E-30
  -1.305625        5.7295223E-30
  -1.300625        4.6859937E-30
  -1.295625        3.5310541E-30
  -1.290625        2.3540715E-30
  -1.285625        1.1894904E-30
  -1.280625        2.9187694E-31
  -1.275625       -4.4482343E-31
  -1.270625       -1.3563463E-30
  -1.265625       -2.3404852E-30
  -1.260625       -3.3092735E-30
  -1.255625       -4.2767802E-30
  -1.250625       -5.3128117E-30
  -1.245625       -6.4158015E-30
  -1.240625       -7.5405544E-30
  -1.235625       -8.6838616E-30
  -1.230625       -9.6804454E-30
  -1.225625       -1.0536241E-29
  -1.220625       -1.1292804E-29
  -1.215625       -1.1913778E-29
  -1.210625       -1.2503555E-29
  -1.205625       -1.2957518E-29
  -1.200625       -1.3143568E-29
  -1.195625       -1.3306998E-29
  -1.190625       -1.3585417E-29
  -1.185625       -1.3661074E-29
  -1.180625       -1.3360051E-29
  -1.175625       -1.2823565E-29
  -1.170625       -1.1709967E-29
  -1.165625       -9.8495842E-30
  -1.160625       -7.5256051E-30
  -1.155625       -4.8575459E-30
  -1.150625       -1.7286598E-30
  -1.145625        2.2755758E-30
  -1.140625        7.0237589E-30
  -1.135625        1.2354893E-29
  -1.130625        1.8335729E-29
  -1.125625        2.4780787E-29
  -1.120625        3.1283331E-29
  -1.115625        3.7282823E-29
  -1.110625        4.2334940E-29
  -1.105625        4.5933541E-29
  -1.100625        4.6874059E-29
  -1.095625        4.3835968E-29
  -1.090625        3.6057688E-29
  -1.085625        2.2539095E-29
  -1.080625        2.6773150E-30
  -1.075625       -2.3586405E-29
  -1.070625       -5.6059680E-29
  -1.065625       -9.3788798E-29
  -1.060625       -1.3476771E-28
  -1.055625       -1.7605582E-28
  -1.050625       -2.1351521E-28
  -1.045625       -2.4183004E-28
  -1.040625       -2.5518825E-28
  -1.035625       -2.4679004E-28
  -1.030625       -2.0985701E-28
  -1.025625       -1.3841746E-28
  -1.020625       -2.7424839E-29
  -1.015625        1.2523363E-28
  -1.010625        3.1888315E-28
  -1.005625        5.4881608E-28
  -1.000625        8.0458810E-28
 -0.9956249        1.0699207E-27
 -0.9906249        1.3228696E-27
 -0.9856249        1.5349371E-27
 -0.9806249        1.6720111E-27
 -0.9756249        1.6965270E-27
 -0.9706249        1.5688715E-27
 -0.9656249        1.2516040E-27
 -0.9606249        7.1334726E-28
 -0.9556249       -6.7132796E-29
 -0.9506249       -1.0949179E-27
 -0.9456249       -2.3534253E-27
 -0.9406249       -3.7999272E-27
 -0.9356249       -5.3616549E-27
 -0.9306249       -6.9326136E-27
 -0.9256249       -8.3740112E-27
 -0.9206249       -9.5178148E-27
 -0.9156249       -1.0172024E-26
 -0.9106249       -1.0131111E-26
 -0.9056249       -9.1907696E-27
 -0.9006249       -7.1663067E-27
 -0.8956249       -3.9141649E-27
 -0.8906249        6.4328381E-28
 -0.8856249        6.4928845E-27
 -0.8806249        1.3507299E-26
 -0.8756249        2.1423529E-26
 -0.8706249        2.9828686E-26
 -0.8656249        3.8154823E-26
 -0.8606249        4.5684805E-26
 -0.8556249        5.1573899E-26
 -0.8506249        5.4885793E-26
 -0.8456249        5.4646885E-26
 -0.8406249        4.9917408E-26
 -0.8356249        3.9876688E-26
 -0.8306249        2.3921788E-26
 -0.8256249        1.7716248E-27
 -0.8206249       -2.6428572E-26
 -0.8156249       -6.0012957E-26
 -0.8106249       -9.7719399E-26
 -0.8056249       -1.3764289E-25
 -0.8006249       -1.7723046E-25
 -0.7956249       -2.1332584E-25
 -0.7906249       -2.4227208E-25
 -0.7856249       -2.6007849E-25
 -0.7806249       -2.6265267E-25
 -0.7756249       -2.4609342E-25
 -0.7706249       -2.0703613E-25
 -0.7656249       -1.4303453E-25
 -0.7606249       -5.2957742E-26
 -0.7556249        6.2624882E-26
 -0.7506249        2.0110441E-25
 -0.7456249        3.5757273E-25
 -0.7406249        5.2468021E-25
 -0.7356249        6.9264753E-25
 -0.7306249        8.4946297E-25
 -0.7256249        9.8128804E-25
 -0.7206249        1.0730847E-24
 -0.7156249        1.1094627E-24
 -0.7106249        1.0757300E-24
 -0.7056249        9.5910922E-25
 -0.7006249        7.5006078E-25
 -0.6956249        4.4363915E-25
 -0.6906249        4.0787008E-26
 -0.6856249       -4.5053759E-25
 -0.6806249       -1.0145202E-24
 -0.6756249       -1.6270466E-24
 -0.6706249       -2.2557706E-24
 -0.6656249       -2.8607853E-24
 -0.6606249       -3.3959618E-24
 -0.6556249       -3.8109870E-24
 -0.6506249       -4.0540832E-24
 -0.6456249       -4.0753430E-24
 -0.6406249       -3.8305543E-24
 -0.6356249       -3.2853292E-24
 -0.6306249       -2.4193029E-24
 -0.6256249       -1.2301135E-24
 -0.6206249        2.6315892E-25
 -0.6156249        2.0174329E-24
 -0.6106249        3.9642793E-24
 -0.6056249        6.0101052E-24
 -0.6006249        8.0381108E-24
 -0.5956249        9.9121966E-24
 -0.5906249        1.1482882E-23
 -0.5856249        1.2595161E-23
 -0.5806249        1.3098078E-23
 -0.5756249        1.2855631E-23
 -0.5706249        1.1758468E-23
 -0.5656249        9.7357095E-24
 -0.5606249        6.7660568E-24
 -0.5556249        2.8873108E-24
 -0.5506249       -1.7966287E-24
 -0.5456249       -7.1121759E-24
 -0.5406249       -1.2816691E-23
 -0.5356249       -1.8603980E-23
 -0.5306249       -2.4115028E-23
 -0.5256249       -2.8954051E-23
 -0.5206249       -3.2709603E-23
 -0.5156249       -3.4980058E-23
 -0.5106249       -3.5402307E-23
 -0.5056249       -3.3682205E-23
 -0.5006249       -2.9624905E-23
 -0.4956249       -2.3162849E-23
 -0.4906249       -1.4379207E-23
 -0.4856249       -3.5242499E-24
 -0.4806249        8.9774430E-24
 -0.4756249        2.2530942E-23
 -0.4706249        3.6387424E-23
 -0.4656249        4.9674019E-23
 -0.4606249        6.1436714E-23
 -0.4556249        7.0695430E-23
 -0.4506249        7.6509025E-23
 -0.4456249        7.8047178E-23
 -0.4406249        7.4665003E-23
 -0.4356249        6.5975322E-23
 -0.4306249        5.1913128E-23
 -0.4256249        3.2786438E-23
 -0.4206249        9.3078069E-24
 -0.4156249       -1.7398938E-23
 -0.4106249       -4.5820727E-23
 -0.4056249       -7.4108951E-23
 -0.4006249       -1.0016580E-22
 -0.3956249       -1.2176183E-22
 -0.3906249       -1.3668128E-22
 -0.3856249       -1.4288845E-22
 -0.3806249       -1.3870662E-22
 -0.3756249       -1.2299818E-22
 -0.3706249       -9.5333626E-23
 -0.3656249       -5.6134610E-23
 -0.3606249       -6.7771616E-24
 -0.3556249        5.0358779E-23
 -0.3506249        1.1190537E-22
 -0.3456249        1.7359780E-22
 -0.3406249        2.3044561E-22
 -0.3356249        2.7698461E-22
 -0.3306249        3.0760410E-22
 -0.3256249        3.1693816E-22
 -0.3206249        3.0030377E-22
 -0.3156249        2.5416235E-22
 -0.3106249        1.7657526E-22
 -0.3056249        6.7621245E-23
 -0.3006249       -7.0259543E-23
 -0.2956249       -2.3203070E-22
 -0.2906249       -4.0996682E-22
 -0.2856249       -5.9373246E-22
 -0.2806249       -7.7065440E-22
 -0.2756249       -9.2619934E-22
 -0.2706249       -1.0446584E-21
 -0.2656249       -1.1100232E-21
 -0.2606249       -1.1070275E-21
 -0.2556249       -1.0223112E-21
 -0.2506249       -8.4564854E-22
 -0.2456249       -5.7117190E-22
 -0.2406249       -1.9850958E-22
 -0.2356249        2.6624601E-22
 -0.2306249        8.0983128E-22
 -0.2256249        1.4114482E-21
 -0.2206249        2.0428217E-21
 -0.2156249        2.6687361E-21
 -0.2106249        3.2480917E-21
 -0.2056249        3.7354947E-21
 -0.2006249        4.0833634E-21
 -0.1956249        4.2444931E-21
 -0.1906249        4.1750055E-21
 -0.1856249        3.8375485E-21
 -0.1806249        3.2045987E-21
 -0.1756249        2.2616800E-21
 -0.1706249        1.0103077E-21
 -0.1656249       -5.2957240E-22
 -0.1606249       -2.3178522E-21
 -0.1556249       -4.2934422E-21
 -0.1506249       -6.3745442E-21
 -0.1456249       -8.4601553E-21
 -0.1406249       -1.0432887E-20
 -0.1356249       -1.2163131E-20
 -0.1306249       -1.3514510E-20
 -0.1256249       -1.4350498E-20
 -0.1206249       -1.4542000E-20
 -0.1156249       -1.3975591E-20
 -0.1106249       -1.2562053E-20
 -0.1056249       -1.0244768E-20
 -0.1006249       -7.0075098E-21
 -9.5624901E-02   -2.8811024E-21
 -9.0624899E-02    2.0515515E-21
 -8.5624903E-02    7.6525726E-21
 -8.0624901E-02    1.3728767E-20
 -7.5624906E-02    2.0034185E-20
 -7.0624903E-02    2.6275851E-20
 -6.5624900E-02    3.2122706E-20
 -6.0624901E-02    3.7217767E-20
 -5.5624902E-02    4.1193181E-20
 -5.0624903E-02    4.3687815E-20
 -4.5624901E-02    4.4366727E-20
 -4.0624902E-02    4.2941715E-20
 -3.5624903E-02    3.9192063E-20
 -3.0624902E-02    3.2984337E-20
 -2.5624903E-02    2.4290212E-20
 -2.0624902E-02    1.3201052E-20
 -1.5624902E-02   -6.1765335E-23
 -1.0624902E-02   -1.5141927E-20
 -5.6249024E-03   -3.1549376E-20
 -6.2490237E-04   -4.8668364E-20
  4.3750978E-03   -6.5772633E-20
  9.3750972E-03   -8.2047793E-20
  1.4375098E-02   -9.6620473E-20
  1.9375097E-02   -1.0859358E-19
  2.4375098E-02   -1.1708652E-19
  2.9375097E-02   -1.2127892E-19
  3.4375098E-02   -1.2045601E-19
  3.9375097E-02   -1.1405361E-19
  4.4375099E-02   -1.0170065E-19
  4.9375098E-02   -8.3256763E-20
  5.4375097E-02   -5.8842785E-20
  5.9375096E-02   -2.8862118E-20
  6.4375095E-02    5.9889452E-21
  6.9375098E-02    4.4723310E-20
  7.4375100E-02    8.6078353E-20
  7.9375096E-02    1.2854519E-19
  8.4375098E-02    1.7041120E-19
  8.9375101E-02    2.0981529E-19
  9.4375096E-02    2.4481398E-19
  9.9375099E-02    2.7345666E-19
  0.1043751        2.9386713E-19
  0.1093751        3.0432817E-19
  0.1143751        3.0336614E-19
  0.1193751        2.8983201E-19
  0.1243751        2.6297488E-19
  0.1293751        2.2250554E-19
  0.1343751        1.6864602E-19
  0.1393751        1.0216327E-19
  0.1443751        2.4384422E-20
  0.1493751       -6.2807178E-20
  0.1543751       -1.5699653E-19
  0.1593751       -2.5528182E-19
  0.1643751       -3.5433889E-19
  0.1693751       -4.5050448E-19
  0.1743751       -5.3987576E-19
  0.1793751       -6.1842447E-19
  0.1843751       -6.8212327E-19
  0.1893751       -7.2708028E-19
  0.1943751       -7.4968020E-19
  0.1993751       -7.4672815E-19
  0.2043751       -7.1559250E-19
  0.2093751       -6.5434438E-19
  0.2143751       -5.6188978E-19
  0.2193751       -4.3809016E-19
  0.2243751       -2.8386900E-19
  0.2293751       -1.0129898E-19
  0.2343751        1.0633387E-19
  0.2393751        3.3449449E-19
  0.2443751        5.7739606E-19
  0.2493751        8.2803525E-19
  0.2543751        1.0782709E-18
  0.2593751        1.3189518E-18
  0.2643751        1.5400970E-18
  0.2693751        1.7311313E-18
  0.2743751        1.8811789E-18
  0.2793751        1.9794138E-18
  0.2843751        2.0154661E-18
  0.2893751        1.9798727E-18
  0.2943751        1.8645708E-18
  0.2993751        1.6634124E-18
  0.3043751        1.3726894E-18
  0.3093751        9.9164232E-19
  0.3143751        5.2293128E-19
  0.3193751       -2.6957887E-20
  0.3243751       -6.4740671E-19
  0.3293751       -1.3234810E-18
  0.3343751       -2.0359039E-18
  0.3393751       -2.7612118E-18
  0.3443751       -3.4721192E-18
  0.3493751       -4.1381025E-18
  0.3543751       -4.7262180E-18
  0.3593751       -5.2021492E-18
  0.3643751       -5.5314713E-18
  0.3693751       -5.6811124E-18
  0.3743751       -5.6209636E-18
  0.3793751       -5.3256010E-18
  0.3843751       -4.7760387E-18
  0.3893751       -3.9614503E-18
  0.3943751       -2.8807713E-18
  0.3993751       -1.5440873E-18
  0.4043751        2.6279533E-20
  0.4093751        1.7950857E-18
  0.4143751        3.7139640E-18
  0.4193751        5.7217816E-18
  0.4243751        7.7456175E-18
  0.4293751        9.7024034E-18
  0.4343751        1.1501236E-17
  0.4393751        1.3046339E-17
  0.4443751        1.4240642E-17
  0.4493751        1.4989878E-17
  0.4543751        1.5207075E-17
  0.4593751        1.4817333E-17
  0.4643751        1.3762605E-17
  0.4693751        1.2006410E-17
  0.4743751        9.5381014E-18
  0.4793751        6.3765472E-18
  0.4843751        2.5729447E-18
  0.4893751       -1.7874879E-18
  0.4943751       -6.5851141E-18
  0.4993751       -1.1666995E-17
  0.5043751       -1.6849639E-17
  0.5093751       -2.1923448E-17
  0.5143751       -2.6658883E-17
  0.5193751       -3.0814258E-17
  0.5243751       -3.4145020E-17
  0.5293751       -3.6414238E-17
  0.5343751       -3.7403999E-17
  0.5393751       -3.6927288E-17
  0.5443751       -3.4839812E-17
  0.5493751       -3.1051318E-17
  0.5543751       -2.5535704E-17
  0.5593751       -1.8339435E-17
  0.5643751       -9.5875982E-18
  0.5693751        5.1291293E-19
  0.5743751        1.1673582E-17
  0.5793751        2.3528163E-17
  0.5843751        3.5640533E-17
  0.5893751        4.7516583E-17
  0.5943751        5.8620053E-17
  0.5993751        6.8391955E-17
  0.6043751        7.6273127E-17
  0.6093751        8.1729210E-17
  0.6143751        8.4277085E-17
  0.6193751        8.3511758E-17
  0.6243751        7.9132458E-17
  0.6293751        7.0966683E-17
  0.6343751        5.8990789E-17
  0.6393751        4.3345988E-17
  0.6443751        2.4348262E-17
  0.6493751        2.4914262E-18
  0.6543751       -2.1557668E-17
  0.6593751       -4.6972265E-17
  0.6643751       -7.2787368E-17
  0.6693751       -9.7929787E-17
  0.6743751       -1.2125589E-16
  0.6793751       -1.4159609E-16
  0.6843751       -1.5780459E-16
  0.6893751       -1.6881258E-16
  0.6943751       -1.7368273E-16
  0.6993751       -1.7166253E-16
  0.7043751       -1.6223403E-16
  0.7093751       -1.4515711E-16
  0.7143751       -1.2050408E-16
  0.7193751       -8.8683026E-17
  0.7243751       -5.0447922E-17
  0.7293751       -6.8940491E-18
  0.7343751        4.0562347E-17
  0.7393751        9.0220477E-17
  0.7443751        1.4014709E-16
  0.7493751        1.8824308E-16
  0.7543751        2.3232271E-16
  0.7593751        2.7020266E-16
  0.7643751        2.9979797E-16
  0.7693751        3.1922046E-16
  0.7743751        3.2687586E-16
  0.7793751        3.2155491E-16
  0.7843751        3.0251390E-16
  0.7893751        2.6954055E-16
  0.7943751        2.2300075E-16
  0.7993751        1.6386343E-16
  0.8043751        9.3700346E-17
  0.8093751        1.4659715E-17
  0.8143751       -7.0587074E-17
  0.8193751       -1.5892510E-16
  0.8243751       -2.4690002E-16
  0.8293751       -3.3084315E-16
  0.8343751       -4.0701386E-16
  0.8393751       -4.7175389E-16
  0.8443751       -5.2164720E-16
  0.8493751       -5.5367929E-16
  0.8543751       -5.6538872E-16
  0.8593751       -5.5500352E-16
  0.8643751       -5.2155694E-16
  0.8693751       -4.6497487E-16
  0.8743751       -3.8613080E-16
  0.8793751       -2.8686422E-16
  0.8843751       -1.6995900E-16
  0.8893751       -3.9081607E-17
  0.8943751        1.0132103E-16
  0.8993751        2.4616119E-16
  0.9043751        3.8988405E-16
  0.9093751        5.2666910E-16
  0.9143751        6.5065312E-16
  0.9193751        7.5616558E-16
  0.9243751        8.3796848E-16
  0.9293751        8.9148947E-16
  0.9343751        9.1304011E-16
  0.9393751        9.0000872E-16
  0.9443751        8.5101882E-16
  0.9493751        7.6604559E-16
  0.9543751        6.4648450E-16
  0.9593751        4.9516551E-16
  0.9643751        3.1631204E-16
  0.9693751        1.1544220E-16
  0.9743751       -1.0078499E-16
  0.9793751       -3.2477504E-16
  0.9843751       -5.4824986E-16
  0.9893751       -7.6253702E-16
  0.9943751       -9.5888788E-16
  0.9993751       -1.1288124E-15
   1.004375       -1.2644194E-15
   1.009375       -1.3587489E-15
   1.014375       -1.4060828E-15
   1.019375       -1.4022232E-15
   1.024375       -1.3447243E-15
   1.029375       -1.2330679E-15
   1.034375       -1.0687740E-15
   1.039375       -8.5543853E-16
   1.044375       -5.9869538E-16
   1.049375       -3.0609830E-16
   1.054375        1.3073632E-17
   1.059375        3.4808483E-16
   1.064375        6.8707866E-16
   1.069375        1.0174704E-15
   1.074375        1.3263852E-15
   1.079375        1.6011280E-15
   1.084375        1.8296674E-15
   1.089375        2.0011172E-15
   1.094375        2.1061997E-15
   1.099375        2.1376676E-15
   1.104375        2.0906732E-15
   1.109375        1.9630628E-15
   1.114375        1.7555883E-15
   1.119375        1.4720174E-15
   1.124375        1.1191384E-15
   1.129375        7.0665317E-16
   1.134375        2.4695727E-16
   1.139375       -2.4519306E-16
   1.144375       -7.5311462E-16
   1.149375       -1.2587240E-15
   1.154375       -1.7431430E-15
   1.159375       -2.1873601E-15
   1.164375       -2.5729289E-15
   1.169375       -2.8826791E-15
   1.174375       -3.1014133E-15
   1.179375       -3.2165627E-15
   1.184375       -3.2187760E-15
   1.189375       -3.1024164E-15
   1.194375       -2.8659430E-15
   1.199375       -2.5121600E-15
   1.204375       -2.0483141E-15
   1.209375       -1.4860332E-15
   1.214375       -8.4110043E-16
   1.219375       -1.3306561E-16
   1.224375        6.1529971E-16
   1.229375        1.3786895E-15
   1.234375        2.1300719E-15
   1.239375        2.8415967E-15
   1.244375        3.4855690E-15
   1.249375        4.0354615E-15
   1.254375        4.4669231E-15
   1.259375        4.7587518E-15
   1.264375        4.8937926E-15
   1.269375        4.8597279E-15
   1.274375        4.6497247E-15
   1.279375        4.2629127E-15
   1.284375        3.7046705E-15
   1.289375        2.9866998E-15
   1.294375        2.1268813E-15
   1.299375        1.1489080E-15
   1.304375        8.1701886E-17
   1.309375       -1.0413760E-15
   1.314375       -2.1834985E-15
   1.319375       -3.3055035E-15
   1.324375       -4.3671507E-15
   1.329375       -5.3284662E-15
   1.334375       -6.1511308E-15
   1.339375       -6.7998712E-15
   1.344375       -7.2438054E-15
   1.349375       -7.4576973E-15
   1.354375       -7.4230732E-15
   1.359375       -7.1291663E-15
   1.364375       -6.5736372E-15
   1.369375       -5.7630521E-15
   1.374375       -4.7130789E-15
   1.379375       -3.4483906E-15
   1.384375       -2.0022605E-15
   1.389375       -4.1584627E-16
   1.394375        1.2628278E-15
   1.399375        2.9801768E-15
   1.404375        4.6786199E-15
   1.409375        6.2983672E-15
   1.414375        7.7793852E-15
   1.419375        9.0634787E-15
   1.424375        1.0096430E-14
   1.429375        1.0830128E-14
   1.434375        1.1224596E-14
   1.439375        1.1249868E-14
   1.444375        1.0887602E-14
   1.449375        1.0132378E-14
   1.454375        8.9926041E-15
   1.459375        7.4909569E-15
   1.464375        5.6643308E-15
   1.469375        3.5632410E-15
   1.474375        1.2506752E-15
   1.479375       -1.1996023E-15
   1.484375       -3.7052690E-15
   1.489375       -6.1781236E-15
   1.494375       -8.5271654E-15
   1.499375       -1.0661968E-14
   1.504375       -1.2496221E-14
   1.509375       -1.3951320E-14
   1.514375       -1.4959850E-14
   1.519375       -1.5468804E-14
   1.524375       -1.5442390E-14
   1.529375       -1.4864276E-14
   1.534375       -1.3739142E-14
   1.539375       -1.2093415E-14
   1.544375       -9.9751335E-15
   1.549375       -7.4528743E-15
   1.554375       -4.6137266E-15
   1.559375       -1.5603740E-15
   1.564375        1.5926514E-15
   1.569375        4.7234157E-15
   1.574375        7.7075628E-15
   1.579375        1.0423629E-14
   1.584375        1.2758456E-14
   1.589375        1.4612464E-14
   1.594375        1.5904528E-14
   1.599375        1.6576211E-14
   1.604375        1.6595105E-14
   1.609375        1.5957105E-14
   1.614375        1.4687433E-14
   1.619375        1.2840316E-14
   1.624375        1.0497280E-14
   1.629375        7.7640615E-15
   1.634375        4.7662493E-15
   1.639375        1.6438071E-15
   1.644375       -1.4553046E-15
   1.649375       -4.3821139E-15
   1.654375       -6.9939214E-15
   1.659375       -9.1615143E-15
   1.664375       -1.0775960E-14
   1.669375       -1.1754607E-14
   1.674375       -1.2045968E-14
   1.679375       -1.1633181E-14
   1.684375       -1.0535833E-14
   1.689375       -8.8099880E-15
   1.694375       -6.5463407E-15
   1.699375       -3.8665436E-15
   1.704375       -9.1783093E-16
   1.709375        2.1338554E-15
   1.714375        5.1119201E-15
   1.719375        7.8379686E-15
   1.724375        1.0141021E-14
   1.729375        1.1866631E-14
   1.734375        1.2885397E-14
   1.739375        1.3100441E-14
   1.744375        1.2453400E-14
   1.749375        1.0928592E-14
   1.754375        8.5550760E-15
   1.759375        5.4064601E-15
   1.764375        1.5983982E-15
   1.769375       -2.7161278E-15
   1.774375       -7.3535563E-15
   1.779375       -1.2108170E-14
   1.784375       -1.6761818E-14
   1.789375       -2.1094383E-14
   1.794375       -2.4894500E-14
   1.799375       -2.7969878E-14
   1.804375       -3.0156748E-14
   1.809375       -3.1327832E-14
   1.814375       -3.1398441E-14
   1.819375       -3.0330349E-14
   1.824375       -2.8133212E-14
   1.829375       -2.4863465E-14
   1.834375       -2.0620777E-14
   1.839375       -1.5542267E-14
   1.844375       -9.7948671E-15
   1.849375       -3.5662378E-15
   1.854375        2.9451401E-15
   1.859375        9.5401135E-15
   1.864375        1.6028637E-14
   1.869375        2.2238552E-14
   1.874375        2.8022823E-14
   1.879375        3.3264830E-14
   1.884375        3.7881360E-14
   1.889375        4.1823139E-14
   1.894375        4.5072947E-14
   1.899375        4.7641453E-14
   1.904375        4.9561084E-14
   1.909375        5.0878471E-14
   1.914375        5.1645872E-14
   1.919375        5.1912444E-14
   1.924375        5.1715874E-14
   1.929375        5.1075023E-14
   1.934375        4.9984265E-14
   1.939375        4.8409878E-14
   1.944375        4.6288914E-14
   1.949375        4.3530660E-14
   1.954375        4.0020691E-14
   1.959375        3.5627297E-14
   1.964375        3.0209945E-14
   1.969375        2.3629205E-14
   1.974375        1.5757578E-14
   1.979375        6.4904548E-15
   1.984375       -4.2434309E-15
   1.989375       -1.6472773E-14
   1.994375       -3.0176216E-14
   1.999375       -4.5277092E-14
   2.004375       -6.1640661E-14
   2.009375       -7.9073839E-14
   2.014375       -9.7327365E-14
   2.019375       -1.1610007E-13
   2.024375       -1.3504474E-13
   2.029375       -1.5377498E-13
   2.034375       -1.7187242E-13
   2.039375       -1.8889351E-13
   2.044375       -2.0437557E-13
   2.049375       -2.1784119E-13
   2.054375       -2.2880124E-13
   2.059375       -2.3675587E-13
   2.064375       -2.4119446E-13
   2.069375       -2.4159434E-13
   2.074375       -2.3741973E-13
   2.079375       -2.2812145E-13
   2.084375       -2.1313897E-13
   2.089375       -1.9190586E-13
   2.094375       -1.6386000E-13
   2.099375       -1.2845973E-13
   2.104375       -8.5206629E-14
   2.109375       -3.3675658E-14
   2.114375        2.6447609E-14
   2.119375        9.5322953E-14
   2.124375        1.7290600E-13
   2.129375        2.5889498E-13
   2.134375        3.5267617E-13
   2.139375        4.5327094E-13
   2.144375        5.5928770E-13
   2.149375        6.6888243E-13
   2.154375        7.7973186E-13
   2.159375        8.8902225E-13
   2.164375        9.9345814E-13
   2.169375        1.0892929E-12
   2.174375        1.1723837E-12
   2.179375        1.2382725E-12
   2.184375        1.2822924E-12
   2.189375        1.2996990E-12
   2.194375        1.2858233E-12
   2.199375        1.2362458E-12
   2.204375        1.1469829E-12
   2.209375        1.0146833E-12
   2.214375        8.3682708E-13
   2.219375        6.1191986E-13
   2.224375        3.3967588E-13
   2.229375        2.1180933E-14
   2.234375       -3.4096971E-13
   2.239375       -7.4256682E-13
   2.244375       -1.1777208E-12
   2.249375       -1.6388382E-12
   2.254375       -2.1166454E-12
   2.259375       -2.6002594E-12
   2.264375       -3.0773082E-12
   2.269375       -3.5340984E-12
   2.274375       -3.9558279E-12
   2.279375       -4.3268397E-12
   2.284375       -4.6309115E-12
   2.289375       -4.8515731E-12
   2.294375       -4.9724513E-12
   2.299375       -4.9776199E-12
   2.304375       -4.8519669E-12
   2.309375       -4.5815495E-12
   2.314375       -4.1539476E-12
   2.319375       -3.5585896E-12
   2.324375       -2.7870616E-12
   2.329375       -1.8333737E-12
   2.334375       -6.9419389E-13
   2.339375        6.3096799E-13
   2.344375        2.1396255E-12
   2.349375        3.8262366E-12
   2.354375        5.6821809E-12
   2.359375        7.6958015E-12
   2.364375        9.8525025E-12
   2.369375        1.2134918E-11
   2.374375        1.4523137E-11
   2.379375        1.6994990E-11
   2.384375        1.9526391E-11
   2.389375        2.2091743E-11
   2.394375        2.4664376E-11
   2.399375        2.7217041E-11
   2.404375        2.9722422E-11
   2.409375        3.2153686E-11
   2.414375        3.4485036E-11
   2.419375        3.6692253E-11
   2.424375        3.8753254E-11
   2.429375        4.0648582E-11
   2.434375        4.2361885E-11
   2.439375        4.3880330E-11
   2.444375        4.5194948E-11
   2.449375        4.6300890E-11
   2.454375        4.7197597E-11
   2.459375        4.7888887E-11
   2.464375        4.8382902E-11
   2.469375        4.8692002E-11
   2.474375        4.8832511E-11
   2.479375        4.8824372E-11
   2.484375        4.8690749E-11
   2.489375        4.8457516E-11
   2.494375        4.8152708E-11
   2.499375        4.7805929E-11
   2.504375        4.7447723E-11
   2.509375        4.7108987E-11
   2.514375        4.6820364E-11
   2.519375        4.6611708E-11
   2.524375        4.6511604E-11
   2.529375        4.6546971E-11
   2.534375        4.6742759E-11
   2.539375        4.7121741E-11