  -2.000625        6.5572898E-31
  -1.995625        1.9677811E-30
  -1.990625        3.2809405E-30
  -1.985625        4.5950492E-30
  -1.980625        5.9096367E-30
  -1.975625        7.2415651E-30
  -1.970625        8.5026015E-30
  -1.965625        9.4003640E-30
  -1.960625        9.8049552E-30
  -1.955625        9.5739422E-30
  -1.950625        8.7560833E-30
  -1.945625        7.4310013E-30
  -1.940625        5.7085722E-30
  -1.935625        3.9641179E-30
  -1.930625        2.2475589E-30
  -1.925625        5.3880302E-31
  -1.920625       -1.1246538E-30
  -1.915625       -2.6360154E-30
  -1.910625       -4.0753197E-30
  -1.905625       -5.5971967E-30
  -1.900625       -6.7950149E-30
  -1.895625       -7.4617523E-30
  -1.890625       -7.5532858E-30
  -1.885625       -7.3587233E-30
  -1.880625       -6.9413434E-30
  -1.875625       -6.0162794E-30
  -1.870625       -4.5320543E-30
  -1.865625       -2.6671241E-30
  -1.860625       -7.9291081E-31
  -1.855625        1.0997594E-30
  -1.850625        2.9276943E-30
  -1.845625        4.7552264E-30
  -1.840625        6.5489111E-30
  -1.835625        7.8811438E-30
  -1.830625        8.4334185E-30
  -1.825625        8.2032014E-30
  -1.820625        7.5888666E-30
  -1.815625        6.9822777E-30
  -1.810625        6.3812898E-30
  -1.805625        5.4441157E-30
  -1.800625        3.9767749E-30
  -1.795625        2.2316740E-30
  -1.790625        6.2252892E-31
  -1.785625       -6.3013122E-31
  -1.780625       -1.5195940E-30
  -1.775625       -2.0055634E-30
  -1.770625       -2.2117829E-30
  -1.765625       -2.2123146E-30
  -1.760625       -2.0083152E-30
  -1.755625       -1.8179812E-30
  -1.750625       -1.6878613E-30
  -1.745625       -1.5789293E-30
  -1.740625       -1.6899881E-30
  -1.735625       -2.1519574E-30
  -1.730625       -2.9720026E-30
  -1.725625       -4.0262310E-30
  -1.720625       -5.2337895E-30
  -1.715625       -6.5014249E-30
  -1.710625       -7.7763815E-30
  -1.705625       -9.1225253E-30
  -1.700625       -1.0449141E-29
  -1.695625       -1.1452853E-29
  -1.690625       -1.1896367E-29
  -1.685625       -1.1874057E-29
  -1.680625       -1.1465794E-29
  -1.675625       -1.0631637E-29
  -1.670625       -9.5437269E-30
  -1.665625       -8.3376186E-30
  -1.660625       -7.1690643E-30
  -1.655625       -5.9288956E-30
  -1.650625       -3.9906404E-30
  -1.645625       -1.5335684E-30
  -1.640625        8.9900868E-31
  -1.635625        3.2388082E-30
  -1.630625        5.4955937E-30
  -1.625625        7.3766465E-30
  -1.620625        8.5728935E-30
  -1.615625        9.2425634E-30
  -1.610625        9.3495661E-30
  -1.605625        8.7841063E-30
  -1.600625        7.7992557E-30
  -1.595625        6.3763004E-30
  -1.590625        4.6455443E-30
  -1.585625        3.0713565E-30
  -1.580625        1.3355957E-30
  -1.575625       -6.6309420E-31
  -1.570625       -2.5999005E-30
  -1.565625       -4.5183441E-30
  -1.560625       -6.2197637E-30
  -1.555625       -7.5459395E-30
  -1.550625       -8.4388736E-30
  -1.545625       -8.7512624E-30
  -1.540625       -8.4473981E-30
  -1.535625       -7.6441867E-30
  -1.530625       -6.6162901E-30
  -1.525625       -5.5611615E-30
  -1.520625       -4.4338507E-30
  -1.515625       -3.3041901E-30
  -1.510625       -2.0709683E-30
  -1.505625       -4.8091214E-31
  -1.500625        1.3907402E-30
  -1.495625        2.8243012E-30
  -1.490625        3.5357373E-30
  -1.485625        3.9595574E-30
  -1.480625        4.1189375E-30
  -1.475625        3.8625811E-30
  -1.470625        3.4259980E-30
  -1.465625        3.1027213E-30
  -1.460625        2.7777368E-30
  -1.455625        2.3836133E-30
  -1.450625        1.6932155E-30
  -1.445625        8.5741517E-31
  -1.440625        1.1409439E-31
  -1.435625       -6.8208318E-31
  -1.430625       -1.1648882E-30
  -1.425625       -1.0085821E-30
  -1.420625       -2.7008205E-31
  -1.415625        1.0464319E-30
  -1.410625        2.5242556E-30
  -1.405625        3.7844768E-30
  -1.400625        4.9578003E-30
  -1.395625        6.0886172E-30
  -1.390625        7.1055681E-30
  -1.385625        7.7228422E-30
  -1.380625        7.8318633E-30
  -1.375625        7.6086849E-30
  -1.370625        7.0317237E-30
  -1.365625        6.1592425E-30
  -1.360625        4.9486962E-30
  -1.355625        3.3014833E-30
  -1.350625        1.2871424E-30
  -1.345625       -9.9424610E-31
  -1.340625       -3.4701808E-30
  -1.335625       -6.0246801E-30
  -1.330625       -8.4080835E-30
  -1.325625       -1.0406552E-29
  -1.320625       -1.1914300E-29
  -1.315625       -1.2845082E-29
  -1.310625       -1.3323940E-29
  -1.305625       -1.3649437E-29
  -1.300625       -1.3481570E-29
  -1.295625       -1.2378812E-29
  -1.290625       -1.0583781E-29
  -1.285625       -8.4446107E-30
  -1.280625       -6.2042423E-30
  -1.275625       -3.8805273E-30
  -1.270625       -1.4231609E-30
  -1.265625        9.9418883E-31
  -1.260625        3.2610688E-30
  -1.255625        5.3385969E-30
  -1.250625        7.1592082E-30
  -1.245625        8.9085507E-30
  -1.240625        1.0705940E-29
  -1.235625        1.2446764E-29
  -1.230625        1.3993771E-29
  -1.225625        1.4918777E-29
  -1.220625        1.4804953E-29
  -1.215625        1.3666579E-29
  -1.210625        1.1798901E-29
  -1.205625        9.5381944E-30
  -1.200625        7.0001196E-30
  -1.195625        4.1041447E-30
  -1.190625        6.2999642E-31
  -1.185625       -3.2270852E-30
  -1.180625       -7.0443137E-30
  -1.175625       -1.1079874E-29
  -1.170625       -1.5127736E-29
  -1.165625       -1.8320639E-29
  -1.160625       -2.0732055E-29
  -1.155625       -2.2248952E-29
  -1.150625       -2.2520039E-29
  -1.145625       -2.1485790E-29
  -1.140625       -1.8883069E-29
  -1.135625       -1.3968607E-29
  -1.130625       -6.1295132E-30
  -1.125625        4.9678716E-30
  -1.120625        1.9504049E-29
  -1.115625        3.6630020E-29
  -1.110625        5.6495103E-29
  -1.105625        7.8561505E-29
  -1.100625        1.0050954E-28
  -1.095625        1.2048064E-28
  -1.090625        1.3635154E-28
  -1.085625        1.4464337E-28
  -1.080625        1.4131696E-28
  -1.075625        1.2377465E-28
  -1.070625        9.0386944E-29
  -1.065625        3.8337727E-29
  -1.060625       -3.3420572E-29
  -1.055625       -1.2394657E-28
  -1.050625       -2.3134326E-28
  -1.045625       -3.5026888E-28
  -1.040625       -4.7441230E-28
  -1.035625       -5.9447424E-28
  -1.030625       -6.9750057E-28
  -1.025625       -7.6969834E-28
  -1.020625       -7.9529486E-28
  -1.015625       -7.5916899E-28
  -1.010625       -6.4694274E-28
  -1.005625       -4.4608967E-28
  -1.000625       -1.4839903E-28
 -0.9956249        2.4801948E-28
 -0.9906249        7.3803667E-28
 -0.9856249        1.3062809E-27
 -0.9806249        1.9267219E-27
 -0.9756249        2.5627655E-27
 -0.9706249        3.1653050E-27
 -0.9656249        3.6755972E-27
 -0.9606249        4.0272258E-27
 -0.9556249        4.1488348E-27
 -0.9506249        3.9678652E-27
 -0.9456249        3.4191835E-27
 -0.9406249        2.4510294E-27
 -0.9356249        1.0314011E-27
 -0.9306249       -8.4409542E-28
 -0.9256249       -3.1445326E-27
 -0.9206249       -5.7967961E-27
 -0.9156249       -8.6815160E-27
 -0.9106249       -1.1633199E-26
 -0.9056249       -1.4441915E-26
 -0.9006249       -1.6857407E-26
 -0.8956249       -1.8600198E-26
 -0.8906249       -1.9376559E-26
 -0.8856249       -1.8898645E-26
 -0.8806249       -1.6907351E-26
 -0.8756249       -1.3197621E-26
 -0.8706249       -7.6473409E-27
 -0.8656249       -2.4521939E-28
 -0.8606249        8.8861337E-27
 -0.8556249        1.9470531E-26
 -0.8506249        3.1065056E-26
 -0.8456249        4.3057692E-26
 -0.8406249        5.4677977E-26
 -0.8356249        6.5020338E-26
 -0.8306249        7.3082650E-26
 -0.8256249        7.7819754E-26
 -0.8206249        7.8210487E-26
 -0.8156249        7.3336171E-26
 -0.8106249        6.2467849E-26
 -0.8056249        4.5153748E-26
 -0.8006249        2.1303041E-26
 -0.7956249       -8.7375490E-27
 -0.7906249       -4.4128007E-26
 -0.7856249       -8.3502911E-26
 -0.7806249       -1.2497334E-25
 -0.7756249       -1.6616500E-25
 -0.7706249       -2.0429771E-25
 -0.7656249       -2.3630987E-25
 -0.7606249       -2.5902149E-25
 -0.7556249       -2.6933568E-25
 -0.7506249       -2.6446577E-25
 -0.7456249       -2.4218037E-25
 -0.7406249       -2.0104835E-25
 -0.7356249       -1.4066309E-25
 -0.7306249       -6.1833217E-26
 -0.7256249        3.3286756E-26
 -0.7206249        1.4113884E-25
 -0.7156249        2.5679804E-25
 -0.7106249        3.7411539E-25
 -0.7056249        4.8596504E-25
 -0.7006249        5.8460490E-25
 -0.6956249        6.6213518E-25
 -0.6906249        7.1103184E-25
 -0.6856249        7.2473174E-25
 -0.6806249        6.9823163E-25
 -0.6756249        6.2865563E-25
 -0.6706249        5.1573926E-25
 -0.6656249        3.6218101E-25
 -0.6606249        1.7381507E-25
 -0.6556249       -4.0440575E-26
 -0.6506249       -2.6889022E-25
 -0.6456249       -4.9763846E-25
 -0.6406249       -7.1143643E-25
 -0.6356249       -8.9476558E-25
 -0.6306249       -1.0331186E-24
 -0.6256249       -1.1143947E-24
 -0.6206249       -1.1303078E-24
 -0.6156249       -1.0776933E-24
 -0.6106249       -9.5957829E-25
 -0.6056249       -7.8588182E-25
 -0.6006249       -5.7360778E-25
 -0.5956249       -3.4641138E-25
 -0.5906249       -1.3345500E-25
 -0.5856249        3.2484762E-26
 -0.5806249        1.1765454E-25
 -0.5756249        9.0635705E-26
 -0.5706249       -7.3829739E-26
 -0.5656249       -3.9072653E-25
 -0.5606249       -8.6063877E-25
 -0.5556249       -1.4659894E-24
 -0.5506249       -2.1680428E-24
 -0.5456249       -2.9051043E-24
 -0.5406249       -3.5923369E-24
 -0.5356249       -4.1236043E-24
 -0.5306249       -4.3756339E-24
 -0.5256249       -4.2146957E-24
 -0.5206249       -3.5058288E-24
 -0.5156249       -2.1244578E-24
 -0.5106249        2.9954293E-26
 -0.5056249        3.0189060E-24
 -0.5006249        6.8493061E-24
 -0.4956249        1.1458523E-23
 -0.4906249        1.6701299E-23
 -0.4856249        2.2339943E-23
 -0.4806249        2.8039351E-23
 -0.4756249        3.3368258E-23
 -0.4706249        3.7808040E-23
 -0.4656249        4.0770133E-23
 -0.4606249        4.1622627E-23
 -0.4556249        3.9726240E-23
 -0.4506249        3.4479028E-23
 -0.4456249        2.5368525E-23
 -0.4406249        1.2029353E-23
 -0.4356249       -5.6967362E-24
 -0.4306249       -2.7701942E-23
 -0.4256249       -5.3558929E-23
 -0.4206249       -8.2477654E-23
 -0.4156249       -1.1327754E-22
 -0.4106249       -1.4437990E-22
 -0.4056249       -1.7382560E-22
 -0.4006249       -1.9932137E-22
 -0.3956249       -2.1831790E-22
 -0.3906249       -2.2812068E-22
 -0.3856249       -2.2603273E-22
 -0.3806249       -2.0952678E-22
 -0.3756249       -1.7644048E-22
 -0.3706249       -1.2518781E-22
 -0.3656249       -5.4975521E-23
 -0.3606249        3.3987611E-23
 -0.3556249        1.4030346E-22
 -0.3506249        2.6123456E-22
 -0.3456249        3.9260764E-22
 -0.3406249        5.2878647E-22
 -0.3356249        6.6272768E-22
 -0.3306249        7.8613248E-22
 -0.3256249        8.8969990E-22
 -0.3206249        9.6348679E-22
 -0.3156249        9.9736949E-22
 -0.3106249        9.8159974E-22
 -0.3056249        9.0743723E-22
 -0.3006249        7.6783525E-22
 -0.2956249        5.5815032E-22
 -0.2906249        2.7683593E-22
 -0.2856249       -7.3918211E-23
 -0.2806249       -4.8764862E-22
 -0.2756249       -9.5322842E-22
 -0.2706249       -1.4546716E-21
 -0.2656249       -1.9711734E-21
 -0.2606249       -2.4774229E-21
 -0.2556249       -2.9442131E-21
 -0.2506249       -3.3393635E-21
 -0.2456249       -3.6289552E-21
 -0.2406249       -3.7788603E-21
 -0.2356249       -3.7565325E-21
 -0.2306249       -3.5329970E-21
 -0.2256249       -3.0849794E-21
 -0.2206249       -2.3970690E-21
 -0.2156249       -1.4638194E-21
 -0.2106249       -2.9166083E-22
 -0.2056249        1.0994949E-21
 -0.2006249        2.6750975E-21
 -0.1956249        4.3853687E-21
 -0.1906249        6.1654012E-21
 -0.1856249        7.9360427E-21
 -0.1806249        9.6056454E-21
 -0.1756249        1.1072723E-20
 -0.1706249        1.2229522E-20
 -0.1656249        1.2966471E-20
 -0.1606249        1.3177413E-20
 -0.1556249        1.2765482E-20
 -0.1506249        1.1649457E-20
 -0.1456249        9.7703020E-21
 -0.1406249        7.0976410E-21
 -0.1356249        3.6358029E-21
 -0.1306249       -5.7089907E-22
 -0.1256249       -5.4340657E-21
 -0.1206249       -1.0818665E-20
 -0.1156249       -1.6542396E-20
 -0.1106249       -2.2377320E-20
 -0.1056249       -2.8054011E-20
 -0.1006249       -3.3268438E-20
 -9.5624901E-02   -3.7691638E-20
 -9.0624899E-02   -4.0982130E-20
 -8.5624903E-02   -4.2800936E-20
 -8.0624901E-02   -4.2828766E-20
 -7.5624906E-02   -4.0784941E-20
 -7.0624903E-02   -3.6447252E-20
 -6.5624900E-02   -2.9672035E-20
 -6.0624901E-02   -2.0413370E-20
 -5.5624902E-02   -8.7403094E-21
 -5.0624903E-02    5.1489626E-21
 -4.5624901E-02    2.0917362E-20
 -4.0624902E-02    3.8084594E-20
 -3.5624903E-02    5.6029395E-20
 -3.0624902E-02    7.3999216E-20
 -2.5624903E-02    9.1127929E-20
 -2.0624902E-02    1.0646192E-19
 -1.5624902E-02    1.1899440E-19
 -1.0624902E-02    1.2770745E-19
 -5.6249024E-03    1.3162077E-19
 -6.2490237E-04    1.2984560E-19
  4.3750978E-03    1.2164185E-19
  9.3750972E-03    1.0647579E-19
  1.4375098E-02    8.4075827E-20
  1.9375097E-02    5.4482807E-20
  2.4375098E-02    1.8091776E-20
  2.9375097E-02   -2.4318057E-20
  3.4375098E-02   -7.1568487E-20
  3.9375097E-02   -1.2208525E-19
  4.4375099E-02   -1.7392108E-19
  4.9375098E-02   -2.2480008E-19
  5.4375097E-02   -2.7218450E-19
  5.9375096E-02   -3.1336290E-19
  6.4375095E-02   -3.4555853E-19
  6.9375098E-02   -3.6605472E-19
  7.4375100E-02   -3.7233338E-19
  7.9375096E-02   -3.6222138E-19
  8.4375098E-02   -3.3403841E-19
  8.9375101E-02   -2.8673955E-19
  9.4375096E-02   -2.2004465E-19
  9.9375099E-02   -1.3454681E-19
  0.1043751       -3.1792257E-20
  0.1093751        8.5675574E-20
  0.1143751        2.1431406E-19
  0.1193751        3.4962624E-19
  0.1243751        4.8625585E-19
  0.1293751        6.1813351E-19
  0.1343751        7.3867270E-19
  0.1393751        8.4101247E-19
  0.1443751        9.1830014E-19
  0.1493751        9.6400518E-19
  0.1543751        9.7225382E-19
  0.1593751        9.3817109E-19
  0.1643751        8.5821472E-19
  0.1693751        7.3048718E-19
  0.1743751        5.5500640E-19
  0.1793751        3.3392180E-19
  0.1843751        7.1658534E-20
  0.1893751       -2.2502365E-19
  0.1943751       -5.4706763E-19
  0.1993751       -8.8326160E-19
  0.2043751       -1.2204921E-18
  0.2093751       -1.5441063E-18
  0.2143751       -1.8383824E-18
  0.2193751       -2.0870968E-18
  0.2243751       -2.2741737E-18
  0.2293751       -2.3844015E-18
  0.2343751       -2.4041887E-18
  0.2393751       -2.3223340E-18
  0.2443751       -2.1307776E-18
  0.2493751       -1.8253010E-18
  0.2543751       -1.4061399E-18
  0.2593751       -8.7847263E-19
  0.2643751       -2.5275196E-19
  0.2693751        4.5515262E-19
  0.2743751        1.2240304E-18
  0.2793751        2.0276432E-18
  0.2843751        2.8352918E-18
  0.2893751        3.6126381E-18
  0.2943751        4.3227818E-18
  0.2993751        4.9275687E-18
  0.3043751        5.3891036E-18
  0.3093751        5.6714290E-18
  0.3143751        5.7423077E-18
  0.3193751        5.5750501E-18
  0.3243751        5.1503110E-18
  0.3293751        4.4577636E-18
  0.3343751        3.4975765E-18
  0.3393751        2.2815899E-18
  0.3443751        8.3411264E-19
  0.3493751       -8.0774513E-19
  0.3543751       -2.5942710E-18
  0.3593751       -4.4639352E-18
  0.3643751       -6.3447929E-18
  0.3693751       -8.1565137E-18
  0.3743751       -9.8130148E-18
  0.3793751       -1.1225649E-17
  0.3843751       -1.2306868E-17
  0.3893751       -1.2974236E-17
  0.3943751       -1.3154658E-17
  0.3993751       -1.2788653E-17
  0.4043751       -1.1834471E-17
  0.4093751       -1.0271850E-17
  0.4143751       -8.1052144E-18
  0.4193751       -5.3660716E-18
  0.4243751       -2.1144523E-18
  0.4293751        1.5608028E-18
  0.4343751        5.5430345E-18
  0.4393751        9.6901256E-18
  0.4443751        1.3838259E-17
  0.4493751        1.7807045E-17
  0.4543751        2.1405914E-17
  0.4593751        2.4441624E-17
  0.4643751        2.6726627E-17
  0.4693751        2.8088000E-17
  0.4743751        2.8376596E-17
  0.4793751        2.7475989E-17
  0.4843751        2.5310827E-17
  0.4893751        2.1854099E-17
  0.4943751        1.7132922E-17
  0.4993751        1.1232433E-17
  0.5043751        4.2974312E-18
  0.5093751       -3.4685085E-18
  0.5143751       -1.1806646E-17
  0.5193751       -2.0409471E-17
  0.5243751       -2.8929864E-17
  0.5293751       -3.6992864E-17
  0.5343751       -4.4209680E-17
  0.5393751       -5.0193611E-17
  0.5443751       -5.4577211E-17
  0.5493751       -5.7030139E-17
  0.5543751       -5.7276877E-17
  0.5593751       -5.5113545E-17
  0.5643751       -5.0423018E-17
  0.5693751       -4.3187424E-17
  0.5743751       -3.3497413E-17
  0.5793751       -2.1557339E-17
  0.5843751       -7.6859141E-18
  0.5893751        7.6880921E-18
  0.5943751        2.4035375E-17
  0.5993751        4.0740779E-17
  0.6043751        5.7122942E-17
  0.6093751        7.2458414E-17
  0.6143751        8.6009611E-17
  0.6193751        9.7055570E-17
  0.6243751        1.0492446E-16
  0.6293751        1.0902654E-16
  0.6343751        1.0888613E-16
  0.6393751        1.0417112E-16
  0.6443751        9.4718599E-17
  0.6493751        8.0554951E-17
  0.6543751        6.1909473E-17
  0.6593751        3.9220100E-17
  0.6643751        1.3130500E-17
  0.6693751       -1.5521968E-17
  0.6743751       -4.5727600E-17
  0.6793751       -7.6334821E-17
  0.6843751       -1.0608901E-16
  0.6893751       -1.3367874E-16
  0.6943751       -1.5778779E-16
  0.6993751       -1.7715112E-16
  0.7043751       -1.9061281E-16
  0.7093751       -1.9718312E-16
  0.7143751       -1.9609259E-16
  0.7193751       -1.8684029E-16
  0.7243751       -1.6923377E-16
  0.7293751       -1.4341844E-16
  0.7343751       -1.0989429E-16
  0.7393751       -6.9518442E-17
  0.7443751       -2.3492432E-17
  0.7493751        2.6666104E-17
  0.7543751        7.9167220E-17
  0.7593751        1.3200690E-16
  0.7643751        1.8303805E-16
  0.7693751        2.3005198E-16
  0.7743751        2.7086748E-16
  0.7793751        3.0342388E-16
  0.7843751        3.2587449E-16
  0.7893751        3.3667622E-16
  0.7943751        3.3467132E-16
  0.7993751        3.1915751E-16
  0.8043751        2.8994234E-16
  0.8093751        2.4737949E-16
  0.8143751        1.9238362E-16
  0.8193751        1.2642288E-16
  0.8243751        5.1487910E-17
  0.8293751       -2.9962285E-17
  0.8343751       -1.1507626E-16
  0.8393751       -2.0070563E-16
  0.8443751       -2.8351723E-16
  0.8493751       -3.6011741E-16
  0.8543751       -4.2718444E-16
  0.8593751       -4.8160335E-16
  0.8643751       -5.2059831E-16
  0.8693751       -5.4185666E-16
  0.8743751       -5.4363946E-16
  0.8793751       -5.2487402E-16
  0.8843751       -4.8522367E-16
  0.8893751       -4.2513187E-16
  0.8943751       -3.4583752E-16
  0.8993751       -2.4936084E-16
  0.9043751       -1.3845864E-16
  0.9093751       -1.6550837E-17
  0.9143751        1.1238090E-16
  0.9193751        2.4391852E-16
  0.9243751        3.7335296E-16
  0.9293751        4.9584578E-16
  0.9343751        6.0660016E-16
  0.9393751        7.0103665E-16
  0.9443751        7.7496643E-16
  0.9493751        8.2475709E-16
  0.9543751        8.4748405E-16
  0.9593751        8.4106200E-16
  0.9643751        8.0435202E-16
  0.9693751        7.3723890E-16
  0.9743751        6.4067613E-16
  0.9793751        5.1669523E-16
  0.9843751        3.6837833E-16
  0.9893751        1.9979334E-16
  0.9943751        1.5893210E-17
  0.9993751       -1.7761969E-16
   1.004375       -3.7445979E-16
   1.009375       -5.6795179E-16
   1.014375       -7.5124469E-16
   1.019375       -9.1754135E-16
   1.024375       -1.0603356E-15
   1.029375       -1.1736495E-15
   1.034375       -1.2522611E-15
   1.039375       -1.2919184E-15
   1.044375       -1.2895252E-15
   1.049375       -1.2432983E-15
   1.054375       -1.1528826E-15
   1.059375       -1.0194223E-15
   1.064375       -8.4558272E-16
   1.069375       -6.3551855E-16
   1.074375       -3.9478919E-16
   1.079375       -1.3022078E-16
   1.084375        1.5028219E-16
   1.089375        4.3797024E-16
   1.094375        7.2352104E-16
   1.099375        9.9734138E-16
   1.104375        1.2498892E-15
   1.109375        1.4720039E-15
   1.114375        1.6552345E-15
   1.119375        1.7921508E-15
   1.124375        1.8766292E-15
   1.129375        1.9040981E-15
   1.134375        1.8717359E-15
   1.139375        1.7786114E-15
   1.144375        1.6257614E-15
   1.149375        1.4162004E-15
   1.154375        1.1548635E-15
   1.159375        8.4847926E-16
   1.164375        5.0538194E-16
   1.169375        1.3526470E-16
   1.174375       -2.5111528E-16
   1.179375       -6.4227036E-16
   1.184375       -1.0263420E-15
   1.189375       -1.3914753E-15
   1.194375       -1.7261943E-15
   1.199375       -2.0197643E-15
   1.204375       -2.2625319E-15
   1.209375       -2.4462284E-15
   1.214375       -2.5642292E-15
   1.219375       -2.6117583E-15
   1.224375       -2.5860378E-15
   1.229375       -2.4863706E-15
   1.234375       -2.3141628E-15
   1.239375       -2.0728817E-15
   1.244375       -1.7679533E-15
   1.249375       -1.4066051E-15
   1.254375       -9.9765965E-16
   1.259375       -5.5128615E-16
   1.264375       -7.8719973E-17
   1.269375        4.0804243E-16
   1.274375        8.9656172E-16
   1.279375        1.3742794E-15
   1.284375        1.8288360E-15
   1.289375        2.2483759E-15
   1.294375        2.6218327E-15
   1.299375        2.9391868E-15
   1.304375        3.1916881E-15
   1.309375        3.3720458E-15
   1.314375        3.4745770E-15
   1.319375        3.4953162E-15
   1.324375        3.4320831E-15
   1.329375        3.2845147E-15
   1.334375        3.0540618E-15
   1.339375        2.7439503E-15
   1.344375        2.3591180E-15
   1.349375        1.9061246E-15
   1.354375        1.3930428E-15
   1.359375        8.2933176E-16
   1.364375        2.2569865E-16
   1.369375       -4.0605333E-16
   1.374375       -1.0531874E-15
   1.379375       -1.7022067E-15
   1.384375       -2.3390408E-15
   1.389375       -2.9492482E-15
   1.394375       -3.5182352E-15
   1.399375       -4.0314965E-15
   1.404375       -4.4748810E-15
   1.409375       -4.8348827E-15
   1.414375       -5.0989554E-15
   1.419375       -5.2558555E-15
   1.424375       -5.2959981E-15
   1.429375       -5.2118323E-15
   1.434375       -4.9982101E-15
   1.439375       -4.6527469E-15
   1.444375       -4.1761490E-15
   1.449375       -3.5724953E-15
   1.454375       -2.8494449E-15
   1.459375       -2.0183618E-15
   1.464375       -1.0943217E-15
   1.469375       -9.5997017E-17
   1.474375        9.5459628E-16
   1.479375        2.0325028E-15
   1.484375        3.1103789E-15
   1.489375        4.1591846E-15
   1.494375        5.1490027E-15
   1.499375        6.0499654E-15
   1.504375        6.8332503E-15
   1.509375        7.4721138E-15
   1.514375        7.9429193E-15
   1.519375        8.2261087E-15
   1.524375        8.3070800E-15
   1.529375        8.1769054E-15
   1.534375        7.8328728E-15
   1.539375        7.2787955E-15
   1.544375        6.5250755E-15
   1.549375        5.5885015E-15
   1.554375        4.4917810E-15
   1.559375        3.2628173E-15
   1.564375        1.9337612E-15
   1.569375        5.3987207E-16
   1.574375       -8.8175870E-16
   1.579375       -2.2935645E-15
   1.584375       -3.6588766E-15
   1.589375       -4.9432466E-15
   1.594375       -6.1156439E-15
   1.599375       -7.1494866E-15
   1.604375       -8.0234315E-15
   1.609375       -8.7219076E-15
   1.614375       -9.2353468E-15
   1.619375       -9.5601221E-15
   1.624375       -9.6981901E-15
   1.629375       -9.6564763E-15
   1.634375       -9.4460352E-15
   1.639375       -9.0810462E-15
   1.644375       -8.5777146E-15
   1.649375       -7.9531439E-15
   1.654375       -7.2242542E-15
   1.659375       -6.4068200E-15
   1.664375       -5.5146919E-15
   1.669375       -4.5592484E-15
   1.674375       -3.5491151E-15
   1.679375       -2.4901780E-15
   1.684375       -1.3858821E-15
   1.689375       -2.3779103E-16
   1.694375        9.5361479E-16
   1.699375        2.1879776E-15
   1.704375        3.4639885E-15
   1.709375        4.7782924E-15
   1.714375        6.1244442E-15
   1.719375        7.4920022E-15
   1.724375        8.8658337E-15
   1.729375        1.0225684E-14
   1.734375        1.1546081E-14
   1.739375        1.2796581E-14
   1.744375        1.3942370E-14
   1.749375        1.4945224E-14
   1.754375        1.5764769E-14
   1.759375        1.6359996E-14
   1.764375        1.6690972E-14
   1.769375        1.6720647E-14
   1.774375        1.6416671E-14
   1.779375        1.5753134E-14
   1.784375        1.4712136E-14
   1.789375        1.3285110E-14
   1.794375        1.1473817E-14
   1.799375        9.2909875E-15
   1.804375        6.7605655E-15
   1.809375        3.9175342E-15
   1.814375        8.0736364E-16
   1.819375       -2.5149141E-15
   1.824375       -5.9859446E-15
   1.829375       -9.5355530E-15
   1.834375       -1.3088432E-14
   1.839375       -1.6565974E-14
   1.844375       -1.9888144E-14
   1.849375       -2.2975377E-14
   1.854375       -2.5750430E-14
   1.859375       -2.8140161E-14
   1.864375       -3.0077222E-14
   1.869375       -3.1501643E-14
   1.874375       -3.2362344E-14
   1.879375       -3.2618541E-14
   1.884375       -3.2241083E-14
   1.889375       -3.1213713E-14
   1.894375       -2.9534267E-14
   1.899375       -2.7215733E-14
   1.904375       -2.4287169E-14
   1.909375       -2.0794413E-14
   1.914375       -1.6800433E-14
   1.919375       -1.2385257E-14
   1.924375       -7.6453253E-15
   1.929375       -2.6921570E-15
   1.934375        2.3498547E-15
   1.939375        7.3465624E-15
   1.944375        1.2158207E-14
   1.949375        1.6644567E-14
   1.954375        2.0671099E-14
   1.959375        2.4115890E-14
   1.964375        2.6877253E-14
   1.969375        2.8881567E-14
   1.974375        3.0091022E-14
   1.979375        3.0510784E-14
   1.984375        3.0194980E-14
   1.989375        2.9250928E-14
   1.994375        2.7841095E-14
   1.999375        2.6182153E-14
   2.004375        2.4540674E-14
   2.009375        2.3225147E-14
   2.014375        2.2574084E-14
   2.019375        2.2940225E-14
   2.024375        2.4671134E-14
   2.029375        2.8086540E-14
   2.034375        3.3453349E-14
   2.039375        4.0959173E-14
   2.044375        5.0685716E-14
   2.049375        6.2583402E-14
   2.054375        7.6448776E-14
   2.059375        9.1906334E-14
   2.064375        1.0839643E-13
   2.069375        1.2517082E-13
   2.074375        1.4129701E-13
   2.079375        1.5567265E-13
   2.084375        1.6705050E-13
   2.089375        1.7407431E-13
   2.094375        1.7532534E-13
   2.099375        1.6937855E-13
   2.104375        1.5486728E-13
   2.109375        1.3055449E-13
   2.114375        9.5408056E-14
   2.119375        4.8677333E-14
   2.124375       -1.0032158E-14
   2.129375       -8.0689375E-14
   2.134375       -1.6277717E-13
   2.139375       -2.5524399E-13
   2.144375       -3.5647082E-13
   2.149375       -4.6425678E-13
   2.154375       -5.7582509E-13
   2.159375       -6.8785147E-13
   2.164375       -7.9651612E-13
   2.169375       -8.9757899E-13
   2.174375       -9.8647815E-13
   2.179375       -1.0584491E-12
   2.184375       -1.1086642E-12
   2.189375       -1.1323853E-12
   2.194375       -1.1251317E-12
   2.199375       -1.0828515E-12
   2.204375       -1.0020984E-12
   2.209375       -8.8020335E-13
   2.214375       -7.1543899E-13
   2.219375       -5.0716891E-13
   2.224375       -2.5597937E-13
   2.229375        3.6214047E-14
   2.234375        3.6608756E-13
   2.239375        7.2886190E-13
   2.244375        1.1182898E-12
   2.249375        1.5266801E-12
   2.254375        1.9449587E-12
   2.259375        2.3627680E-12
   2.264375        2.7686018E-12
   2.269375        3.1499751E-12
   2.274375        3.4936255E-12
   2.279375        3.7857430E-12
   2.284375        4.0122220E-12
   2.289375        4.1589314E-12
   2.294375        4.2119979E-12
   2.299375        4.1580944E-12
   2.304375        3.9847275E-12
   2.309375        3.6805186E-12
   2.314375        3.2354718E-12
   2.319375        2.6412184E-12
   2.324375        1.8912400E-12
   2.329375        9.8105692E-13
   2.334375       -9.1620179E-14
   2.339375       -1.3267779E-12
   2.344375       -2.7220322E-12
   2.349375       -4.2726070E-12
   2.354375       -5.9713597E-12
   2.359375       -7.8088534E-12
   2.364375       -9.7734746E-12
   2.369375       -1.1851600E-11
   2.374375       -1.4027793E-11
   2.379375       -1.6285053E-11
   2.384375       -1.8605083E-11
   2.389375       -2.0968585E-11
   2.394375       -2.3355585E-11
   2.399375       -2.5745763E-11
   2.404375       -2.8118789E-11
   2.409375       -3.0454656E-11
   2.414375       -3.2734020E-11
   2.419375       -3.4938517E-11
   2.424375       -3.7051050E-11
   2.429375       -3.9056074E-11
   2.434375       -4.0939842E-11
   2.439375       -4.2690615E-11
   2.444375       -4.4298842E-11
   2.449375       -4.5757315E-11
   2.454375       -4.7061268E-11
   2.459375       -4.8208455E-11
   2.464375       -4.9199193E-11
   2.469375       -5.0036367E-11
   2.474375       -5.0725410E-11
   2.479375       -5.1274245E-11
   2.484375       -5.1693226E-11
   2.489375       -5.1995026E-11
   2.494375       -5.2194533E-11
   2.499375       -5.2308723E-11
   2.504375       -5.2356508E-11
   2.509375       -5.2358597E-11
   2.514375       -5.2337319E-11
   2.519375       -5.2316467E-11
   2.524375       -5.2321099E-11
   2.529375       -5.2377363E-11
   2.534375       -5.2512304E-11
   2.539375       -5.2753649E-11